 Q-Chem 4.3, Q-Chem, Inc., Pleasanton, CA (2015)
 Q-Chem 4.3.0 for Intel X86 EM64T Linux

User input:
--------------------------------------------------------------
$molecule
0 1
H 0 0 0
H 0 0 0.74
$end

$rem
method	ccsd
basis	3-21g
$end
--------------------------------------------------------------

             Standard Nuclear Orientation (Angstroms)
    I     Atom           X                Y                Z
 ----------------------------------------------------------------
    1      H       0.0000000000     0.0000000000    -0.3700000000
    2      H       0.0000000000     0.0000000000     0.3700000000
 ----------------------------------------------------------------

    5      -1.1229402569      8.50E-10 Convergence criterion met
 Total energy in the final basis set = -1.1229402569
 CCSD total energy          = -1.14781318

             Orbital Energies (a.u.) and Symmetries
 --------------------------------------------------------------

 Alpha MOs, Restricted
 -- Occupied --
 -0.593
  1 Ag

 Beta MOs, Restricted
 -- Occupied --
 -0.593
  1 Ag

          Ground-State Mulliken Net Atomic Charges

     Atom                 Charge (a.u.)
  ----------------------------------------
      1 H                     0.000000
      2 H                    -0.000000
  ----------------------------------------
  Sum of atomic charges =    -0.000000

                    Cartesian Multipole Moments
 -----------------------------------------------------------------
    Charge (ESU x 10^10)
                -0.0000
    Dipole Moment (Debye)
         X       0.0000      Y       0.0000      Z      -0.0000
       Tot       0.0000
    Quadrupole Moments (Debye-Ang)
        XX      -2.0011     XY       0.0000     YY      -2.0011
        XZ       0.0000     YZ       0.0000     ZZ      -1.5720

 Total job time:  1.65s(wall), 1.70s(cpu)
        *  Thank you very much for using Q-Chem.  Have a nice day.  *
