 Q-Chem 4.3, Q-Chem, Inc., Pleasanton, CA (2015)
 Q-Chem 4.3.0 for Intel X86 EM64T Linux

User input:
--------------------------------------------------------------
$molecule
0 1
H 0 0 0
H 0 0 0.74
H 0 0 4
H 0 0 4.74
$end

$rem
method	ccsd
basis	3-21g
$end
--------------------------------------------------------------

             Standard Nuclear Orientation (Angstroms)
    I     Atom           X                Y                Z
 ----------------------------------------------------------------
    1      H       0.0000000000     0.0000000000    -2.3700000000
    2      H       0.0000000000     0.0000000000    -1.6300000000
    3      H       0.0000000000     0.0000000000     1.6300000000
    4      H       0.0000000000     0.0000000000     2.3700000000
 ----------------------------------------------------------------

    7      -2.2458844499      8.32E-10 Convergence criterion met
 Total energy in the final basis set = -2.2458844499
 CCSD total energy          = -2.29569570

             Orbital Energies (a.u.) and Symmetries
 --------------------------------------------------------------

 Alpha MOs, Restricted
 -- Occupied --
 -0.595  -0.591
  1 Ag    1 B1u

 Beta MOs, Restricted
 -- Occupied --
 -0.595  -0.591
  1 Ag    1 B1u

          Ground-State Mulliken Net Atomic Charges

     Atom                 Charge (a.u.)
  ----------------------------------------
      1 H                     0.001385
      2 H                    -0.001385
      3 H                    -0.001385
      4 H                     0.001385
  ----------------------------------------
  Sum of atomic charges =    -0.000000

                    Cartesian Multipole Moments
 -----------------------------------------------------------------
    Charge (ESU x 10^10)
                -0.0000
    Dipole Moment (Debye)
         X       0.0000      Y       0.0000      Z       0.0000
       Tot       0.0000
    Quadrupole Moments (Debye-Ang)
        XX      -4.0024     XY       0.0000     YY      -4.0024
        XZ       0.0000     YZ       0.0000     ZZ      -3.1034

 Total job time:  1.86s(wall), 1.92s(cpu)
        *  Thank you very much for using Q-Chem.  Have a nice day.  *
