                              Psi4 1.0.0 Driver

  ==> Input File <==

--------------------------------------------------------------------------
memory 24 Gb
molecule beN {
0 1
Be   0.0    0.0 0.0
Be   4.5    0.0 0.0
Be   9.0    0.0 0.0
Be  13.5    0.0 0.0
Be  18.0    0.0 0.0
Be  22.5    0.0 0.0
units angstrom
}

set basis 6-31g
set freeze_core true
set PRINT_BASIS True
set PUREAM False
set E_CONVERGENCE 1e-10
energy('ccsd(t)')
--------------------------------------------------------------------------

    Molecular point group: d2h

    Geometry (in Angstrom), charge = 0, multiplicity = 1:

       Center              X                  Y                   Z               Mass
    ------------   -----------------  -----------------  -----------------  -----------------
          BE        -11.250000000000    -0.000000000000     0.000000000000     9.012182201000
          BE         -6.750000000000    -0.000000000000     0.000000000000     9.012182201000
          BE         -2.250000000000    -0.000000000000     0.000000000000     9.012182201000
          BE          2.250000000000     0.000000000000     0.000000000000     9.012182201000
          BE          6.750000000000     0.000000000000     0.000000000000     9.012182201000
          BE         11.250000000000     0.000000000000     0.000000000000     9.012182201000

  Charge       = 0
  Multiplicity = 1
  Basis Set: 6-31G

    Orbital Energies (a.u.)
    -----------------------

    Doubly Occupied:

       1B3u   -4.708064     1Ag    -4.708064     2B3u   -4.707965
       2Ag    -4.707962     3B3u   -4.707386     3Ag    -4.707386
       4Ag    -0.316274     4B3u   -0.312177     5Ag    -0.305807
       5B3u   -0.298172     6Ag    -0.290687     6B3u   -0.285020

  @RHF Final Energy:   -87.40191543652590

   => Energetics <=

    Nuclear Repulsion Energy =             16.3692149857173348
    One-Electron Energy =                -147.4323310170595960
    Two-Electron Energy =                  43.6612005948163713
    DFT Exchange-Correlation Energy =       0.0000000000000000
    Empirical Dispersion Energy =           0.0000000000000000
    PCM Polarization Energy =               0.0000000000000000
    EFP Energy =                            0.0000000000000000
    Total Energy =                        -87.4019154365258828
      * MP2 total energy                      =  -87.543816978291744
      * CCSD total energy                     =  -87.677597294355223
      * CCSD(T) total energy                  =  -87.677923230288684
*** Psi4 exiting successfully. Buy a developer a beer!
