                              Psi4 1.0.0 Driver

  ==> Input File <==

--------------------------------------------------------------------------
memory 24 Gb
molecule beN {
0 1
Be   0.0    0.0 0.0
Be   4.5    0.0 0.0
Be   9.0    0.0 0.0
Be  13.5    0.0 0.0
Be  18.0    0.0 0.0
Be  22.5    0.0 0.0
Be  27.0    0.0 0.0
Be  31.5    0.0 0.0
Be  36.0    0.0 0.0
units angstrom
}

set basis 6-31g
set freeze_core true
set PRINT_BASIS True
set PUREAM False
set E_CONVERGENCE 1e-10
energy('ccsd(t)')
--------------------------------------------------------------------------

    Molecular point group: d2h

    Geometry (in Angstrom), charge = 0, multiplicity = 1:

       Center              X                  Y                   Z               Mass
    ------------   -----------------  -----------------  -----------------  -----------------
          BE        -18.000000000000    -0.000000000000     0.000000000000     9.012182201000
          BE        -13.500000000000    -0.000000000000     0.000000000000     9.012182201000
          BE         -9.000000000000    -0.000000000000     0.000000000000     9.012182201000
          BE         -4.500000000000    -0.000000000000     0.000000000000     9.012182201000
          BE          0.000000000000     0.000000000000     0.000000000000     9.012182201000
          BE          4.500000000000     0.000000000000     0.000000000000     9.012182201000
          BE          9.000000000000     0.000000000000     0.000000000000     9.012182201000
          BE         13.500000000000     0.000000000000     0.000000000000     9.012182201000
          BE         18.000000000000     0.000000000000     0.000000000000     9.012182201000

  Charge       = 0
  Multiplicity = 1
  Basis Set: 6-31G

    Orbital Energies (a.u.)
    -----------------------

    Doubly Occupied:

       1B3u   -4.708050     1Ag    -4.708050     2B3u   -4.707936
       2Ag    -4.707936     3B3u   -4.707899     3Ag    -4.707898
       4Ag    -4.707889     4B3u   -4.707378     5Ag    -4.707378
       6Ag    -0.316940     5B3u   -0.314943     7Ag    -0.311649
       6B3u   -0.307276     8Ag    -0.302142     7B3u   -0.296676
       9Ag    -0.291412     8B3u   -0.286954    10Ag    -0.283898

  @RHF Final Energy:  -131.10299799558737

   => Energetics <=

    Nuclear Repulsion Energy =             30.9711460875086999
    One-Electron Energy =                -233.9836828500200454
    Two-Electron Energy =                  71.9095387669239585
    DFT Exchange-Correlation Energy =       0.0000000000000000
    Empirical Dispersion Energy =           0.0000000000000000
    PCM Polarization Energy =               0.0000000000000000
    EFP Energy =                            0.0000000000000000
    Total Energy =                       -131.1029979955873728
      * MP2 total energy                      = -131.316104339580505
      * CCSD total energy                     = -131.516518860734067
      * CCSD(T) total energy                  = -131.517043769511361
*** Psi4 exiting successfully. Buy a developer a beer!
