                              Psi4 1.0.0 Driver

  ==> Input File <==

--------------------------------------------------------------------------
memory 24 Gb
molecule beN {
0 1
Be   0.0    0.0 0.0
Be   4.5    0.0 0.0
Be   9.0    0.0 0.0
Be  13.5    0.0 0.0
Be  18.0    0.0 0.0
units angstrom
}

set basis 6-31g
set freeze_core true
set PRINT_BASIS True
set PUREAM False
set E_CONVERGENCE 1e-10
energy('ccsd(t)')
--------------------------------------------------------------------------

    Molecular point group: d2h

    Geometry (in Angstrom), charge = 0, multiplicity = 1:

       Center              X                  Y                   Z               Mass
    ------------   -----------------  -----------------  -----------------  -----------------
          BE         -9.000000000000    -0.000000000000     0.000000000000     9.012182201000
          BE         -4.500000000000    -0.000000000000     0.000000000000     9.012182201000
          BE          0.000000000000    -0.000000000000     0.000000000000     9.012182201000
          BE          4.500000000000     0.000000000000     0.000000000000     9.012182201000
          BE          9.000000000000     0.000000000000     0.000000000000     9.012182201000

  Charge       = 0
  Multiplicity = 1
  Basis Set: 6-31G

    Orbital Energies (a.u.)
    -----------------------

    Doubly Occupied:

       1B3u   -4.708081     1Ag    -4.708080     2Ag    -4.708005
       2B3u   -4.707394     3Ag    -4.707394     4Ag    -0.315790
       3B3u   -0.310246     5Ag    -0.302026     4B3u   -0.293039
       6Ag    -0.285775

  @RHF Final Energy:   -72.83488790640926

   => Energetics <=

    Nuclear Repulsion Energy =             12.0730800182014821
    One-Electron Energy =                -119.7242759682363271
    Two-Electron Energy =                  34.8163080436255754
    DFT Exchange-Correlation Energy =       0.0000000000000000
    Empirical Dispersion Energy =           0.0000000000000000
    PCM Polarization Energy =               0.0000000000000000
    EFP Energy =                            0.0000000000000000
    Total Energy =                        -72.8348879064092785
      * MP2 total energy                      =  -72.953054541543224
      * CCSD total energy                     =  -73.064623452540772
      * CCSD(T) total energy                  =  -73.064883066650822
*** Psi4 exiting successfully. Buy a developer a beer!
