                              Psi4 1.0.0 Driver

  ==> Input File <==

--------------------------------------------------------------------------
memory 24 Gb
molecule beN {
0 1
Be   0.0    0.0 0.0
Be   4.5    0.0 0.0
Be   9.0    0.0 0.0
Be  13.5    0.0 0.0
units angstrom
}

set basis 6-31g
set freeze_core true
set PRINT_BASIS True
set PUREAM False
set E_CONVERGENCE 1e-10
energy('ccsd(t)')
--------------------------------------------------------------------------

    Molecular point group: d2h

    Geometry (in Angstrom), charge = 0, multiplicity = 1:

       Center              X                  Y                   Z               Mass
    ------------   -----------------  -----------------  -----------------  -----------------
          BE         -6.750000000000    -0.000000000000     0.000000000000     9.012182201000
          BE         -2.250000000000    -0.000000000000     0.000000000000     9.012182201000
          BE          2.250000000000     0.000000000000     0.000000000000     9.012182201000
          BE          6.750000000000     0.000000000000     0.000000000000     9.012182201000

  Charge       = 0
  Multiplicity = 1
  Basis Set: 6-31G

    Orbital Energies (a.u.)
    -----------------------

    Doubly Occupied:

       1B3u   -4.708124     1Ag    -4.708121     2B3u   -4.707412
       2Ag    -4.707411     3Ag    -0.314970     3B3u   -0.307141
       4Ag    -0.296523     4B3u   -0.286967

  @RHF Final Energy:   -58.26786035115678

   => Energetics <=

    Nuclear Repulsion Energy =              8.1532488434607391
    One-Electron Energy =                 -92.7688835688935711
    Two-Electron Energy =                  26.3477743742760424
    DFT Exchange-Correlation Energy =       0.0000000000000000
    Empirical Dispersion Energy =           0.0000000000000000
    PCM Polarization Energy =               0.0000000000000000
    EFP Energy =                            0.0000000000000000
    Total Energy =                        -58.2678603511567843
      * MP2 total energy                      =  -58.362292145209082
      * CCSD total energy                     =  -58.451649645724331
      * CCSD(T) total energy                  =  -58.451842945686359
*** Psi4 exiting successfully. Buy a developer a beer!
