                              Psi4 1.0.0 Driver

  ==> Input File <==

--------------------------------------------------------------------------
memory 24 Gb
molecule beN {
0 1
Be   0.0    0.0 0.0
Be   4.5    0.0 0.0
Be   9.0    0.0 0.0
Be  13.5    0.0 0.0
Be  18.0    0.0 0.0
Be  22.5    0.0 0.0
Be  27.0    0.0 0.0
Be  31.5    0.0 0.0
units angstrom
}

set basis 6-31g
set freeze_core true
set PRINT_BASIS True
set PUREAM False
set E_CONVERGENCE 1e-10
energy('ccsd(t)')
--------------------------------------------------------------------------

    Molecular point group: d2h

    Geometry (in Angstrom), charge = 0, multiplicity = 1:

       Center              X                  Y                   Z               Mass
    ------------   -----------------  -----------------  -----------------  -----------------
          BE        -15.750000000000    -0.000000000000     0.000000000000     9.012182201000
          BE        -11.250000000000    -0.000000000000     0.000000000000     9.012182201000
          BE         -6.750000000000    -0.000000000000     0.000000000000     9.012182201000
          BE         -2.250000000000    -0.000000000000     0.000000000000     9.012182201000
          BE          2.250000000000     0.000000000000     0.000000000000     9.012182201000
          BE          6.750000000000     0.000000000000     0.000000000000     9.012182201000
          BE         11.250000000000     0.000000000000     0.000000000000     9.012182201000
          BE         15.750000000000     0.000000000000     0.000000000000     9.012182201000

  Charge       = 0
  Multiplicity = 1
  Basis Set: 6-31G

    Orbital Energies (a.u.)
    -----------------------

    Doubly Occupied:

       1B3u   -4.708052     1Ag    -4.708052     2B3u   -4.707940
       2Ag    -4.707940     3B3u   -4.707907     3Ag    -4.707905
       4B3u   -4.707379     4Ag    -4.707379     5Ag    -0.316792
       5B3u   -0.314319     6Ag    -0.310290     6B3u   -0.305048
       7Ag    -0.299096     7B3u   -0.293097     8Ag    -0.287844
       8B3u   -0.284157

  @RHF Final Energy:  -116.53597047778599

   => Energetics <=

    Nuclear Repulsion Energy =             25.8574463321183536
    One-Electron Energy =                -204.6404403757480281
    Two-Electron Energy =                  62.2470235658436621
    DFT Exchange-Correlation Energy =       0.0000000000000000
    Empirical Dispersion Energy =           0.0000000000000000
    PCM Polarization Energy =               0.0000000000000000
    EFP Energy =                            0.0000000000000000
    Total Energy =                       -116.5359704777860230
      * MP2 total energy                      = -116.725341882676702
      * CCSD total energy                     = -116.903545002785592
      * CCSD(T) total energy                  = -116.904003586901027
*** Psi4 exiting successfully. Buy a developer a beer!
