                              Psi4 1.0.0 Driver

  ==> Input File <==

--------------------------------------------------------------------------
memory 24 Gb
molecule beN {
0 1
Be   0.0    0.0 0.0
Be   4.5    0.0 0.0
Be   9.0    0.0 0.0
Be  13.5    0.0 0.0
Be  18.0    0.0 0.0
Be  22.5    0.0 0.0
Be  27.0    0.0 0.0
Be  31.5    0.0 0.0
Be  36.0    0.0 0.0
Be  40.5    0.0 0.0
Be  45.0    0.0 0.0
Be  49.5    0.0 0.0
Be  54.0    0.0 0.0
Be  58.5    0.0 0.0
Be  63.0    0.0 0.0
Be  67.5    0.0 0.0
Be  72.0    0.0 0.0
units angstrom
}

set basis 6-31g
set freeze_core true
set PRINT_BASIS True
set PUREAM False
set E_CONVERGENCE 1e-10
energy('ccsd(t)')
--------------------------------------------------------------------------

    Molecular point group: d2h

    Geometry (in Angstrom), charge = 0, multiplicity = 1:

       Center              X                  Y                   Z               Mass
    ------------   -----------------  -----------------  -----------------  -----------------
          BE        -36.000000000000    -0.000000000000     0.000000000000     9.012182201000
          BE        -31.500000000000    -0.000000000000     0.000000000000     9.012182201000
          BE        -27.000000000000    -0.000000000000     0.000000000000     9.012182201000
          BE        -22.500000000000    -0.000000000000     0.000000000000     9.012182201000
          BE        -18.000000000000    -0.000000000000     0.000000000000     9.012182201000
          BE        -13.500000000000    -0.000000000000     0.000000000000     9.012182201000
          BE         -9.000000000000    -0.000000000000     0.000000000000     9.012182201000
          BE         -4.500000000000    -0.000000000000     0.000000000000     9.012182201000
          BE          0.000000000000     0.000000000000     0.000000000000     9.012182201000
          BE          4.500000000000     0.000000000000     0.000000000000     9.012182201000
          BE          9.000000000000     0.000000000000     0.000000000000     9.012182201000
          BE         13.500000000000     0.000000000000     0.000000000000     9.012182201000
          BE         18.000000000000     0.000000000000     0.000000000000     9.012182201000
          BE         22.500000000000     0.000000000000     0.000000000000     9.012182201000
          BE         27.000000000000     0.000000000000     0.000000000000     9.012182201000
          BE         31.500000000000     0.000000000000     0.000000000000     9.012182201000
          BE         36.000000000000     0.000000000000     0.000000000000     9.012182201000

  Charge       = 0
  Multiplicity = 1
  Basis Set: 6-31G

    Orbital Energies (a.u.)
    -----------------------

    Doubly Occupied:

       1B3u   -4.708045     1Ag    -4.708045     2B3u   -4.707929
       2Ag    -4.707929     3B3u   -4.707888     3Ag    -4.707888
       4B3u   -4.707872     4Ag    -4.707872     5Ag    -4.707865
       5B3u   -4.707865     6Ag    -4.707861     6B3u   -4.707861
       7Ag    -4.707860     7B3u   -4.707859     8Ag    -4.707857
       8B3u   -4.707375     9Ag    -4.707375    10Ag    -0.317367
       9B3u   -0.316762    11Ag    -0.315737    10B3u   -0.314306
      12Ag    -0.312492    11B3u   -0.310328    13Ag    -0.307857
      12B3u   -0.305131    14Ag    -0.302216    13B3u   -0.299187
      15Ag    -0.296132    14B3u   -0.293151    16Ag    -0.290350
      15B3u   -0.287842    17Ag    -0.285734    16B3u   -0.284129
      18Ag    -0.283111

  @RHF Final Energy:  -247.63921812858996

   => Energetics <=

    Nuclear Repulsion Energy =             78.0310936902235852
    One-Electron Energy =                -481.0304702142709630
    Two-Electron Energy =                 155.3601583954573471
    DFT Exchange-Correlation Energy =       0.0000000000000000
    Empirical Dispersion Energy =           0.0000000000000000
    PCM Polarization Energy =               0.0000000000000000
    EFP Energy =                            0.0000000000000000
    Total Energy =                       -247.6392181285900165
      * MP2 total energy                      = -248.042204010931101
      * CCSD total energy                     = -248.420309735745718
      * CCSD(T) total energy                  = -248.421365243469097
*** Psi4 exiting successfully. Buy a developer a beer!
