                              Psi4 1.0.0 Driver

  ==> Input File <==

--------------------------------------------------------------------------
memory 24 Gb
molecule beN {
0 1
Be   0.0    0.0 0.0
Be   4.5    0.0 0.0
Be   9.0    0.0 0.0
Be  13.5    0.0 0.0
Be  18.0    0.0 0.0
Be  22.5    0.0 0.0
Be  27.0    0.0 0.0
Be  31.5    0.0 0.0
Be  36.0    0.0 0.0
Be  40.5    0.0 0.0
Be  45.0    0.0 0.0
Be  49.5    0.0 0.0
units angstrom
}

set basis 6-31g
set freeze_core true
set PRINT_BASIS True
set PUREAM False
set E_CONVERGENCE 1e-10
energy('ccsd(t)')
--------------------------------------------------------------------------

    Molecular point group: d2h

    Geometry (in Angstrom), charge = 0, multiplicity = 1:

       Center              X                  Y                   Z               Mass
    ------------   -----------------  -----------------  -----------------  -----------------
          BE        -24.750000000000    -0.000000000000     0.000000000000     9.012182201000
          BE        -20.250000000000    -0.000000000000     0.000000000000     9.012182201000
          BE        -15.750000000000    -0.000000000000     0.000000000000     9.012182201000
          BE        -11.250000000000    -0.000000000000     0.000000000000     9.012182201000
          BE         -6.750000000000    -0.000000000000     0.000000000000     9.012182201000
          BE         -2.250000000000    -0.000000000000     0.000000000000     9.012182201000
          BE          2.250000000000     0.000000000000     0.000000000000     9.012182201000
          BE          6.750000000000     0.000000000000     0.000000000000     9.012182201000
          BE         11.250000000000     0.000000000000     0.000000000000     9.012182201000
          BE         15.750000000000     0.000000000000     0.000000000000     9.012182201000
          BE         20.250000000000     0.000000000000     0.000000000000     9.012182201000
          BE         24.750000000000     0.000000000000     0.000000000000     9.012182201000

  Charge       = 0
  Multiplicity = 1
  Basis Set: 6-31G

    Orbital Energies (a.u.)
    -----------------------

    Doubly Occupied:

       1B3u   -4.708047     1Ag    -4.708047     2B3u   -4.707931
       2Ag    -4.707931     3B3u   -4.707891     3Ag    -4.707891
       4B3u   -4.707876     4Ag    -4.707876     5B3u   -4.707871
       5Ag    -4.707869     6B3u   -4.707376     6Ag    -4.707376
       7Ag    -0.317194     7B3u   -0.316023     8Ag    -0.314055
       8B3u   -0.311358     9Ag    -0.308033     9B3u   -0.304218
      10Ag    -0.300091    10B3u   -0.295870    11Ag    -0.291814
      11B3u   -0.288204    12Ag    -0.285326    12B3u   -0.283437

  @RHF Final Energy:  -174.80408054627435

   => Energetics <=

    Nuclear Repulsion Energy =             47.4867693129475015
    One-Electron Energy =                -324.3624941714043075
    Two-Electron Energy =                 102.0716443121824284
    DFT Exchange-Correlation Energy =       0.0000000000000000
    Empirical Dispersion Energy =           0.0000000000000000
    PCM Polarization Energy =               0.0000000000000000
    EFP Energy =                            0.0000000000000000
    Total Energy =                       -174.8040805462743776
      * MP2 total energy                      = -175.088391714944322
      * CCSD total energy                     = -175.355440438097588
      * CCSD(T) total energy                  = -175.356164321343385
*** Psi4 exiting successfully. Buy a developer a beer!
