                              Psi4 1.0.0 Driver

  ==> Input File <==

--------------------------------------------------------------------------
memory 24 Gb
molecule beN {
0 1
Be   0.0    0.0 0.0
Be   4.5    0.0 0.0
Be   9.0    0.0 0.0
Be  13.5    0.0 0.0
Be  18.0    0.0 0.0
Be  22.5    0.0 0.0
Be  27.0    0.0 0.0
Be  31.5    0.0 0.0
Be  36.0    0.0 0.0
Be  40.5    0.0 0.0
Be  45.0    0.0 0.0
Be  49.5    0.0 0.0
Be  54.0    0.0 0.0
Be  58.5    0.0 0.0
Be  63.0    0.0 0.0
units angstrom
}

set basis 6-31g
set freeze_core true
set PRINT_BASIS True
set PUREAM False
set E_CONVERGENCE 1e-10
energy('ccsd(t)')
--------------------------------------------------------------------------

    Molecular point group: d2h

    Geometry (in Angstrom), charge = 0, multiplicity = 1:

       Center              X                  Y                   Z               Mass
    ------------   -----------------  -----------------  -----------------  -----------------
          BE        -31.500000000000    -0.000000000000     0.000000000000     9.012182201000
          BE        -27.000000000000    -0.000000000000     0.000000000000     9.012182201000
          BE        -22.500000000000    -0.000000000000     0.000000000000     9.012182201000
          BE        -18.000000000000    -0.000000000000     0.000000000000     9.012182201000
          BE        -13.500000000000    -0.000000000000     0.000000000000     9.012182201000
          BE         -9.000000000000    -0.000000000000     0.000000000000     9.012182201000
          BE         -4.500000000000    -0.000000000000     0.000000000000     9.012182201000
          BE          0.000000000000     0.000000000000     0.000000000000     9.012182201000
          BE          4.500000000000     0.000000000000     0.000000000000     9.012182201000
          BE          9.000000000000     0.000000000000     0.000000000000     9.012182201000
          BE         13.500000000000     0.000000000000     0.000000000000     9.012182201000
          BE         18.000000000000     0.000000000000     0.000000000000     9.012182201000
          BE         22.500000000000     0.000000000000     0.000000000000     9.012182201000
          BE         27.000000000000     0.000000000000     0.000000000000     9.012182201000
          BE         31.500000000000     0.000000000000     0.000000000000     9.012182201000

  Charge       = 0
  Multiplicity = 1
  Basis Set: 6-31G

    Orbital Energies (a.u.)
    -----------------------

    Doubly Occupied:

       1B3u   -4.708046     1Ag    -4.708046     2B3u   -4.707929
       2Ag    -4.707929     3B3u   -4.707889     3Ag    -4.707889
       4B3u   -4.707873     4Ag    -4.707873     5Ag    -4.707866
       5B3u   -4.707866     6Ag    -4.707863     6B3u   -4.707862
       7Ag    -4.707860     7B3u   -4.707375     8Ag    -4.707375
       9Ag    -0.317317     8B3u   -0.316549    10Ag    -0.315250
       9B3u   -0.313445    11Ag    -0.311175    10B3u   -0.308494
      12Ag    -0.305474    11B3u   -0.302205    13Ag    -0.298793
      12B3u   -0.295367    14Ag    -0.292068    13B3u   -0.289051
      15Ag    -0.286473    14B3u   -0.284482    16Ag    -0.283206

  @RHF Final Energy:  -218.50516309577145

   => Energetics <=

    Nuclear Repulsion Energy =             65.4268772004972732
    One-Electron Energy =                -417.5903018192835816
    Two-Electron Energy =                 133.6582615230148576
    DFT Exchange-Correlation Energy =       0.0000000000000000
    Empirical Dispersion Energy =           0.0000000000000000
    PCM Polarization Energy =               0.0000000000000000
    EFP Energy =                            0.0000000000000000
    Total Energy =                       -218.5051630957714224
      * MP2 total energy                      = -218.860679092359447
      * CCSD total energy                     = -219.194362016631828
      * CCSD(T) total energy                  = -219.195284874547099
*** Psi4 exiting successfully. Buy a developer a beer!
