                              Psi4 1.0.0 Driver

  ==> Input File <==

--------------------------------------------------------------------------
memory 24 Gb
molecule beN {
0 1
Be   0.0    0.0 0.0
Be   4.5    0.0 0.0
Be   9.0    0.0 0.0
Be  13.5    0.0 0.0
Be  18.0    0.0 0.0
Be  22.5    0.0 0.0
Be  27.0    0.0 0.0
Be  31.5    0.0 0.0
Be  36.0    0.0 0.0
Be  40.5    0.0 0.0
Be  45.0    0.0 0.0
Be  49.5    0.0 0.0
Be  54.0    0.0 0.0
Be  58.5    0.0 0.0
units angstrom
}

set basis 6-31g
set freeze_core true
set PRINT_BASIS True
set PUREAM False
set E_CONVERGENCE 1e-10
energy('ccsd(t)')
--------------------------------------------------------------------------

    Molecular point group: d2h

    Geometry (in Angstrom), charge = 0, multiplicity = 1:

       Center              X                  Y                   Z               Mass
    ------------   -----------------  -----------------  -----------------  -----------------
          BE        -29.250000000000    -0.000000000000     0.000000000000     9.012182201000
          BE        -24.750000000000    -0.000000000000     0.000000000000     9.012182201000
          BE        -20.250000000000    -0.000000000000     0.000000000000     9.012182201000
          BE        -15.750000000000    -0.000000000000     0.000000000000     9.012182201000
          BE        -11.250000000000    -0.000000000000     0.000000000000     9.012182201000
          BE         -6.750000000000    -0.000000000000     0.000000000000     9.012182201000
          BE         -2.250000000000    -0.000000000000     0.000000000000     9.012182201000
          BE          2.250000000000     0.000000000000     0.000000000000     9.012182201000
          BE          6.750000000000     0.000000000000     0.000000000000     9.012182201000
          BE         11.250000000000     0.000000000000     0.000000000000     9.012182201000
          BE         15.750000000000     0.000000000000     0.000000000000     9.012182201000
          BE         20.250000000000     0.000000000000     0.000000000000     9.012182201000
          BE         24.750000000000     0.000000000000     0.000000000000     9.012182201000
          BE         29.250000000000     0.000000000000     0.000000000000     9.012182201000

  Charge       = 0
  Multiplicity = 1
  Basis Set: 6-31G

    Orbital Energies (a.u.)
    -----------------------

    Doubly Occupied:

       1B3u   -4.708046     1Ag    -4.708046     2B3u   -4.707930
       2Ag    -4.707930     3B3u   -4.707889     3Ag    -4.707889
       4B3u   -4.707873     4Ag    -4.707873     5B3u   -4.707867
       5Ag    -4.707867     6B3u   -4.707865     6Ag    -4.707862
       7B3u   -4.707375     7Ag    -4.707375     8Ag    -0.317284
       8B3u   -0.316409     9Ag    -0.314930     9B3u   -0.312883
      10Ag    -0.310321    10B3u   -0.307317    11Ag    -0.303967
      11B3u   -0.300388    12Ag    -0.296725    12B3u   -0.293140
      13Ag    -0.289818    13B3u   -0.286947    14Ag    -0.284711
      14B3u   -0.283269

  @RHF Final Energy:  -203.93813557932344

   => Energetics <=

    Nuclear Repulsion Energy =             59.3090010208469565
    One-Electron Energy =                -386.2386836562222925
    Two-Electron Energy =                 122.9915470560519424
    DFT Exchange-Correlation Energy =       0.0000000000000000
    Empirical Dispersion Energy =           0.0000000000000000
    PCM Polarization Energy =               0.0000000000000000
    EFP Energy =                            0.0000000000000000
    Total Energy =                       -203.9381355793233865
      * MP2 total energy                      = -204.269916633134841
      * CCSD total energy                     = -204.581388157088554
      * CCSD(T) total energy                  = -204.582244690105767
*** Psi4 exiting successfully. Buy a developer a beer!
