                              Psi4 1.0.0 Driver

  ==> Input File <==

--------------------------------------------------------------------------
memory 24 Gb
molecule beN {
0 1
Be   0.0    0.0 0.0
Be   4.5    0.0 0.0
Be   9.0    0.0 0.0
Be  13.5    0.0 0.0
Be  18.0    0.0 0.0
Be  22.5    0.0 0.0
Be  27.0    0.0 0.0
Be  31.5    0.0 0.0
Be  36.0    0.0 0.0
Be  40.5    0.0 0.0
Be  45.0    0.0 0.0
Be  49.5    0.0 0.0
Be  54.0    0.0 0.0
Be  58.5    0.0 0.0
Be  63.0    0.0 0.0
Be  67.5    0.0 0.0
Be  72.0    0.0 0.0
Be  76.5    0.0 0.0
Be  81.0    0.0 0.0
Be  85.5    0.0 0.0
Be  90.0    0.0 0.0
Be  94.5    0.0 0.0
Be  99.0    0.0 0.0
Be 103.5    0.0 0.0
Be 108.0    0.0 0.0
units angstrom
}

set basis 6-31g
set freeze_core true
set PRINT_BASIS True
set PUREAM False
set E_CONVERGENCE 1e-10
energy('ccsd(t)')
--------------------------------------------------------------------------

    Molecular point group: d2h

    Geometry (in Angstrom), charge = 0, multiplicity = 1:

       Center              X                  Y                   Z               Mass
    ------------   -----------------  -----------------  -----------------  -----------------
          BE        -54.000000000000    -0.000000000000     0.000000000000     9.012182201000
          BE        -49.500000000000    -0.000000000000     0.000000000000     9.012182201000
          BE        -45.000000000000    -0.000000000000     0.000000000000     9.012182201000
          BE        -40.500000000000    -0.000000000000     0.000000000000     9.012182201000
          BE        -36.000000000000    -0.000000000000     0.000000000000     9.012182201000
          BE        -31.500000000000    -0.000000000000     0.000000000000     9.012182201000
          BE        -27.000000000000    -0.000000000000     0.000000000000     9.012182201000
          BE        -22.500000000000    -0.000000000000     0.000000000000     9.012182201000
          BE        -18.000000000000    -0.000000000000     0.000000000000     9.012182201000
          BE        -13.500000000000    -0.000000000000     0.000000000000     9.012182201000
          BE         -9.000000000000    -0.000000000000     0.000000000000     9.012182201000
          BE         -4.500000000000    -0.000000000000     0.000000000000     9.012182201000
          BE          0.000000000000    -0.000000000000     0.000000000000     9.012182201000
          BE          4.500000000000     0.000000000000     0.000000000000     9.012182201000
          BE          9.000000000000     0.000000000000     0.000000000000     9.012182201000
          BE         13.500000000000     0.000000000000     0.000000000000     9.012182201000
          BE         18.000000000000     0.000000000000     0.000000000000     9.012182201000
          BE         22.500000000000     0.000000000000     0.000000000000     9.012182201000
          BE         27.000000000000     0.000000000000     0.000000000000     9.012182201000
          BE         31.500000000000     0.000000000000     0.000000000000     9.012182201000
          BE         36.000000000000     0.000000000000     0.000000000000     9.012182201000
          BE         40.500000000000     0.000000000000     0.000000000000     9.012182201000
          BE         45.000000000000     0.000000000000     0.000000000000     9.012182201000
          BE         49.500000000000     0.000000000000     0.000000000000     9.012182201000
          BE         54.000000000000     0.000000000000     0.000000000000     9.012182201000

  Charge       = 0
  Multiplicity = 1
  Basis Set: 6-31G

    Orbital Energies (a.u.)
    -----------------------

    Doubly Occupied:

       1B3u   -4.708045     1Ag    -4.708045     2B3u   -4.707928
       2Ag    -4.707928     3B3u   -4.707887     3Ag    -4.707887
       4B3u   -4.707871     4Ag    -4.707871     5B3u   -4.707863
       5Ag    -4.707863     6B3u   -4.707859     6Ag    -4.707859
       7Ag    -4.707857     7B3u   -4.707857     8Ag    -4.707856
       8B3u   -4.707856     9Ag    -4.707856     9B3u   -4.707855
      10Ag    -4.707855    10B3u   -4.707854    11Ag    -4.707853
      11B3u   -4.707852    12Ag    -4.707851    12B3u   -4.707374
      13Ag    -4.707374    14Ag    -0.317465    13B3u   -0.317177
      15Ag    -0.316688    14B3u   -0.316001    16Ag    -0.315118
      15B3u   -0.314047    17Ag    -0.312796    16B3u   -0.311375
      18Ag    -0.309796    17B3u   -0.308075    19Ag    -0.306228
      18B3u   -0.304277    20Ag    -0.302244    19B3u   -0.300154
      21Ag    -0.298036    20B3u   -0.295922    22Ag    -0.293845
      21B3u   -0.291842    23Ag    -0.289949    22B3u   -0.288204
      24Ag    -0.286645    23B3u   -0.285307    25Ag    -0.284223
      24B3u   -0.283421    26Ag    -0.282924

  @RHF Final Energy:  -364.17543825949213

   => Energetics <=

    Nuclear Repulsion Energy =            132.4569678230919294
    One-Electron Energy =                -742.8091876644341482
    Two-Electron Energy =                 246.1767815818500935
    DFT Exchange-Correlation Energy =       0.0000000000000000
    Empirical Dispersion Energy =           0.0000000000000000
    PCM Polarization Energy =               0.0000000000000000
    EFP Energy =                            0.0000000000000000
    Total Energy =                       -364.1754382594921822
      * MP2 total energy                      = -364.768303685738715
      * CCSD total energy                     = -365.324100612143468
      * CCSD(T) total energy                  = -365.325686719153282
*** Psi4 exiting successfully. Buy a developer a beer!
