                              Psi4 1.0.0 Driver

  ==> Input File <==

--------------------------------------------------------------------------
memory 24 Gb
molecule beN {
0 1
Be   0.0    0.0 0.0
Be   4.5    0.0 0.0
Be   9.0    0.0 0.0
Be  13.5    0.0 0.0
Be  18.0    0.0 0.0
Be  22.5    0.0 0.0
Be  27.0    0.0 0.0
Be  31.5    0.0 0.0
Be  36.0    0.0 0.0
Be  40.5    0.0 0.0
Be  45.0    0.0 0.0
Be  49.5    0.0 0.0
Be  54.0    0.0 0.0
Be  58.5    0.0 0.0
Be  63.0    0.0 0.0
Be  67.5    0.0 0.0
Be  72.0    0.0 0.0
Be  76.5    0.0 0.0
Be  81.0    0.0 0.0
Be  85.5    0.0 0.0
Be  90.0    0.0 0.0
Be  94.5    0.0 0.0
Be  99.0    0.0 0.0
Be 103.5    0.0 0.0
Be 108.0    0.0 0.0
Be 112.5    0.0 0.0
Be 117.0    0.0 0.0
Be 121.5    0.0 0.0
Be 126.0    0.0 0.0
units angstrom
}

set basis 6-31g
set freeze_core true
set PRINT_BASIS True
set PUREAM False
set E_CONVERGENCE 1e-10
energy('ccsd(t)')
--------------------------------------------------------------------------

    Molecular point group: d2h

    Geometry (in Angstrom), charge = 0, multiplicity = 1:

       Center              X                  Y                   Z               Mass
    ------------   -----------------  -----------------  -----------------  -----------------
          BE        -63.000000000000    -0.000000000000     0.000000000000     9.012182201000
          BE        -58.500000000000    -0.000000000000     0.000000000000     9.012182201000
          BE        -54.000000000000    -0.000000000000     0.000000000000     9.012182201000
          BE        -49.500000000000    -0.000000000000     0.000000000000     9.012182201000
          BE        -45.000000000000    -0.000000000000     0.000000000000     9.012182201000
          BE        -40.500000000000    -0.000000000000     0.000000000000     9.012182201000
          BE        -36.000000000000    -0.000000000000     0.000000000000     9.012182201000
          BE        -31.500000000000    -0.000000000000     0.000000000000     9.012182201000
          BE        -27.000000000000    -0.000000000000     0.000000000000     9.012182201000
          BE        -22.500000000000    -0.000000000000     0.000000000000     9.012182201000
          BE        -18.000000000000    -0.000000000000     0.000000000000     9.012182201000
          BE        -13.500000000000    -0.000000000000     0.000000000000     9.012182201000
          BE         -9.000000000000    -0.000000000000     0.000000000000     9.012182201000
          BE         -4.500000000000    -0.000000000000     0.000000000000     9.012182201000
          BE          0.000000000000     0.000000000000     0.000000000000     9.012182201000
          BE          4.500000000000     0.000000000000     0.000000000000     9.012182201000
          BE          9.000000000000     0.000000000000     0.000000000000     9.012182201000
          BE         13.500000000000     0.000000000000     0.000000000000     9.012182201000
          BE         18.000000000000     0.000000000000     0.000000000000     9.012182201000
          BE         22.500000000000     0.000000000000     0.000000000000     9.012182201000
          BE         27.000000000000     0.000000000000     0.000000000000     9.012182201000
          BE         31.500000000000     0.000000000000     0.000000000000     9.012182201000
          BE         36.000000000000     0.000000000000     0.000000000000     9.012182201000
          BE         40.500000000000     0.000000000000     0.000000000000     9.012182201000
          BE         45.000000000000     0.000000000000     0.000000000000     9.012182201000
          BE         49.500000000000     0.000000000000     0.000000000000     9.012182201000
          BE         54.000000000000     0.000000000000     0.000000000000     9.012182201000
          BE         58.500000000000     0.000000000000     0.000000000000     9.012182201000
          BE         63.000000000000     0.000000000000     0.000000000000     9.012182201000

  Charge       = 0
  Multiplicity = 1
  Basis Set: 6-31G

    Orbital Energies (a.u.)
    -----------------------

    Doubly Occupied:

       1B3u   -4.708044     1Ag    -4.708044     2Ag    -4.707928
       2B3u   -4.707928     3Ag    -4.707887     3B3u   -4.707887
       4B3u   -4.707870     4Ag    -4.707870     5Ag    -4.707863
       5B3u   -4.707863     6Ag    -4.707859     6B3u   -4.707859
       7Ag    -4.707857     7B3u   -4.707857     8Ag    -4.707856
       8B3u   -4.707856     9Ag    -4.707855     9B3u   -4.707855
      10Ag    -4.707855    10B3u   -4.707854    11Ag    -4.707854
      11B3u   -4.707853    12Ag    -4.707853    12B3u   -4.707852
      13Ag    -4.707851    13B3u   -4.707851    14Ag    -4.707850
      15Ag    -4.707374    14B3u   -4.707374    16Ag    -0.317487
      15B3u   -0.317271    17Ag    -0.316905    16B3u   -0.316389
      18Ag    -0.315725    17B3u   -0.314917    19Ag    -0.313968
      18B3u   -0.312885    20Ag    -0.311673    19B3u   -0.310342
      21Ag    -0.308899    20B3u   -0.307356    22Ag    -0.305724
      21B3u   -0.304018    23Ag    -0.302252    22B3u   -0.300443
      24Ag    -0.298610    23B3u   -0.296772    25Ag    -0.294952
      24B3u   -0.293172    26Ag    -0.291456    25B3u   -0.289829
      27Ag    -0.288315    26B3u   -0.286939    28Ag    -0.285724
      27B3u   -0.284693    29Ag    -0.283864    28B3u   -0.283256
      30Ag    -0.282881

  @RHF Final Energy:  -422.44354832487602

   => Energetics <=

    Nuclear Repulsion Energy =            161.5998257532292257
    One-Electron Energy =                -877.5583963876119924
    Two-Electron Energy =                 293.5150223095067759
    DFT Exchange-Correlation Energy =       0.0000000000000000
    Empirical Dispersion Energy =           0.0000000000000000
    PCM Polarization Energy =               0.0000000000000000
    EFP Energy =                            0.0000000000000000
    Total Energy =                       -422.4435483248760193
      * MP2 total energy                      = -423.131353523206144
      * CCSD total energy                     = -423.775996050228741
      * CCSD(T) total energy                  = -423.777847456890470
*** Psi4 exiting successfully. Buy a developer a beer!
