                              Psi4 1.0.0 Driver

  ==> Input File <==

--------------------------------------------------------------------------
memory 24 Gb
molecule beN {
0 1
Be   0.0    0.0 0.0
Be   4.5    0.0 0.0
Be   9.0    0.0 0.0
Be  13.5    0.0 0.0
Be  18.0    0.0 0.0
Be  22.5    0.0 0.0
Be  27.0    0.0 0.0
Be  31.5    0.0 0.0
Be  36.0    0.0 0.0
Be  40.5    0.0 0.0
Be  45.0    0.0 0.0
Be  49.5    0.0 0.0
Be  54.0    0.0 0.0
Be  58.5    0.0 0.0
Be  63.0    0.0 0.0
Be  67.5    0.0 0.0
Be  72.0    0.0 0.0
Be  76.5    0.0 0.0
Be  81.0    0.0 0.0
Be  85.5    0.0 0.0
Be  90.0    0.0 0.0
units angstrom
}

set basis 6-31g
set freeze_core true
set PRINT_BASIS True
set PUREAM False
set E_CONVERGENCE 1e-10
energy('ccsd(t)')
--------------------------------------------------------------------------

    Molecular point group: d2h

    Geometry (in Angstrom), charge = 0, multiplicity = 1:

       Center              X                  Y                   Z               Mass
    ------------   -----------------  -----------------  -----------------  -----------------
          BE        -45.000000000000    -0.000000000000     0.000000000000     9.012182201000
          BE        -40.500000000000    -0.000000000000     0.000000000000     9.012182201000
          BE        -36.000000000000    -0.000000000000     0.000000000000     9.012182201000
          BE        -31.500000000000    -0.000000000000     0.000000000000     9.012182201000
          BE        -27.000000000000    -0.000000000000     0.000000000000     9.012182201000
          BE        -22.500000000000    -0.000000000000     0.000000000000     9.012182201000
          BE        -18.000000000000    -0.000000000000     0.000000000000     9.012182201000
          BE        -13.500000000000    -0.000000000000     0.000000000000     9.012182201000
          BE         -9.000000000000    -0.000000000000     0.000000000000     9.012182201000
          BE         -4.500000000000    -0.000000000000     0.000000000000     9.012182201000
          BE          0.000000000000     0.000000000000     0.000000000000     9.012182201000
          BE          4.500000000000     0.000000000000     0.000000000000     9.012182201000
          BE          9.000000000000     0.000000000000     0.000000000000     9.012182201000
          BE         13.500000000000     0.000000000000     0.000000000000     9.012182201000
          BE         18.000000000000     0.000000000000     0.000000000000     9.012182201000
          BE         22.500000000000     0.000000000000     0.000000000000     9.012182201000
          BE         27.000000000000     0.000000000000     0.000000000000     9.012182201000
          BE         31.500000000000     0.000000000000     0.000000000000     9.012182201000
          BE         36.000000000000     0.000000000000     0.000000000000     9.012182201000
          BE         40.500000000000     0.000000000000     0.000000000000     9.012182201000
          BE         45.000000000000     0.000000000000     0.000000000000     9.012182201000

  Charge       = 0
  Multiplicity = 1
  Basis Set: 6-31G

    Orbital Energies (a.u.)
    -----------------------

    Doubly Occupied:

       1Ag    -4.708045     1B3u   -4.708045     2Ag    -4.707928
       2B3u   -4.707928     3Ag    -4.707887     3B3u   -4.707887
       4B3u   -4.707871     4Ag    -4.707871     5Ag    -4.707864
       5B3u   -4.707864     6Ag    -4.707860     6B3u   -4.707860
       7Ag    -4.707858     7B3u   -4.707858     8Ag    -4.707857
       8B3u   -4.707856     9Ag    -4.707855     9B3u   -4.707854
      10Ag    -4.707853    11Ag    -4.707374    10B3u   -4.707374
      12Ag    -0.317429    11B3u   -0.317026    13Ag    -0.316342
      12B3u   -0.315381    14Ag    -0.314154    13B3u   -0.312673
      15Ag    -0.310956    14B3u   -0.309024    16Ag    -0.306905
      15B3u   -0.304628    17Ag    -0.302232    16B3u   -0.299759
      18Ag    -0.297255    17B3u   -0.294774    19Ag    -0.292373
      18B3u   -0.290112    20Ag    -0.288054    19B3u   -0.286259
      21Ag    -0.284785    20B3u   -0.283682    22Ag    -0.282993

  @RHF Final Energy:  -305.90732819407941

   => Energetics <=

    Nuclear Repulsion Energy =            104.5231439545514007
    One-Electron Energy =                -610.4780514790897996
    Two-Electron Energy =                 200.0475793304589729
    DFT Exchange-Correlation Energy =       0.0000000000000000
    Empirical Dispersion Energy =           0.0000000000000000
    PCM Polarization Energy =               0.0000000000000000
    EFP Energy =                            0.0000000000000000
    Total Energy =                       -305.9073281940794118
      * MP2 total energy                      = -306.405253848289476
      * CCSD total energy                     = -306.872205173976340
      * CCSD(T) total energy                  = -306.873525981337707
*** Psi4 exiting successfully. Buy a developer a beer!
