                              Psi4 1.0.0 Driver

  ==> Input File <==

--------------------------------------------------------------------------
memory 24 Gb
molecule beN {
0 1
Be   0.0    0.0 0.0
Be   4.5    0.0 0.0
Be   9.0    0.0 0.0
Be  13.5    0.0 0.0
Be  18.0    0.0 0.0
Be  22.5    0.0 0.0
Be  27.0    0.0 0.0
Be  31.5    0.0 0.0
Be  36.0    0.0 0.0
Be  40.5    0.0 0.0
Be  45.0    0.0 0.0
Be  49.5    0.0 0.0
Be  54.0    0.0 0.0
Be  58.5    0.0 0.0
Be  63.0    0.0 0.0
Be  67.5    0.0 0.0
Be  72.0    0.0 0.0
Be  76.5    0.0 0.0
Be  81.0    0.0 0.0
Be  85.5    0.0 0.0
Be  90.0    0.0 0.0
Be  94.5    0.0 0.0
Be  99.0    0.0 0.0
Be 103.5    0.0 0.0
Be 108.0    0.0 0.0
Be 112.5    0.0 0.0
units angstrom
}

set basis 6-31g
set freeze_core true
set PRINT_BASIS True
set PUREAM False
set E_CONVERGENCE 1e-10
energy('ccsd(t)')
--------------------------------------------------------------------------

    Molecular point group: d2h

    Geometry (in Angstrom), charge = 0, multiplicity = 1:

       Center              X                  Y                   Z               Mass
    ------------   -----------------  -----------------  -----------------  -----------------
          BE        -56.250000000000    -0.000000000000     0.000000000000     9.012182201000
          BE        -51.750000000000    -0.000000000000     0.000000000000     9.012182201000
          BE        -47.250000000000    -0.000000000000     0.000000000000     9.012182201000
          BE        -42.750000000000    -0.000000000000     0.000000000000     9.012182201000
          BE        -38.250000000000    -0.000000000000     0.000000000000     9.012182201000
          BE        -33.750000000000    -0.000000000000     0.000000000000     9.012182201000
          BE        -29.250000000000    -0.000000000000     0.000000000000     9.012182201000
          BE        -24.750000000000    -0.000000000000     0.000000000000     9.012182201000
          BE        -20.250000000000    -0.000000000000     0.000000000000     9.012182201000
          BE        -15.750000000000    -0.000000000000     0.000000000000     9.012182201000
          BE        -11.250000000000    -0.000000000000     0.000000000000     9.012182201000
          BE         -6.750000000000    -0.000000000000     0.000000000000     9.012182201000
          BE         -2.250000000000    -0.000000000000     0.000000000000     9.012182201000
          BE          2.250000000000     0.000000000000     0.000000000000     9.012182201000
          BE          6.750000000000     0.000000000000     0.000000000000     9.012182201000
          BE         11.250000000000     0.000000000000     0.000000000000     9.012182201000
          BE         15.750000000000     0.000000000000     0.000000000000     9.012182201000
          BE         20.250000000000     0.000000000000     0.000000000000     9.012182201000
          BE         24.750000000000     0.000000000000     0.000000000000     9.012182201000
          BE         29.250000000000     0.000000000000     0.000000000000     9.012182201000
          BE         33.750000000000     0.000000000000     0.000000000000     9.012182201000
          BE         38.250000000000     0.000000000000     0.000000000000     9.012182201000
          BE         42.750000000000     0.000000000000     0.000000000000     9.012182201000
          BE         47.250000000000     0.000000000000     0.000000000000     9.012182201000
          BE         51.750000000000     0.000000000000     0.000000000000     9.012182201000
          BE         56.250000000000     0.000000000000     0.000000000000     9.012182201000

  Charge       = 0
  Multiplicity = 1
  Basis Set: 6-31G

    Orbital Energies (a.u.)
    -----------------------

    Doubly Occupied:

       1B3u   -4.708044     1Ag    -4.708044     2B3u   -4.707928
       2Ag    -4.707928     3Ag    -4.707887     3B3u   -4.707887
       4Ag    -4.707871     4B3u   -4.707871     5Ag    -4.707863
       5B3u   -4.707863     6B3u   -4.707859     6Ag    -4.707859
       7B3u   -4.707857     7Ag    -4.707857     8B3u   -4.707856
       8Ag    -4.707856     9B3u   -4.707856     9Ag    -4.707855
      10B3u   -4.707855    10Ag    -4.707854    11B3u   -4.707853
      11Ag    -4.707852    12B3u   -4.707852    12Ag    -4.707851
      13Ag    -4.707374    13B3u   -4.707374    14Ag    -0.317471
      14B3u   -0.317205    15Ag    -0.316752    15B3u   -0.316114
      16Ag    -0.315295    16B3u   -0.314301    17Ag    -0.313137
      17B3u   -0.311813    18Ag    -0.310340    18B3u   -0.308729
      19Ag    -0.306996    19B3u   -0.305158    20Ag    -0.303234
      20B3u   -0.301245    21Ag    -0.299216    21B3u   -0.297174
      22Ag    -0.295148    22B3u   -0.293169    23Ag    -0.291268
      23B3u   -0.289481    24Ag    -0.287840    24B3u   -0.286379
      25Ag    -0.285129    25B3u   -0.284119    26Ag    -0.283373
      26B3u   -0.282911

  @RHF Final Energy:  -378.74246577583995

   => Energetics <=

    Nuclear Repulsion Energy =            139.6367654998912542
    One-Electron Energy =                -776.2846559023581676
    Two-Electron Energy =                 257.9054246266269956
    DFT Exchange-Correlation Energy =       0.0000000000000000
    Empirical Dispersion Energy =           0.0000000000000000
    PCM Polarization Energy =               0.0000000000000000
    EFP Energy =                            0.0000000000000000
    Total Energy =                       -378.7424657758399462
      * MP2 total energy                      = -379.359066145105373
      * CCSD total energy                     = -379.937074471672759
      * CCSD(T) total energy                  = -379.938726903595295
*** Psi4 exiting successfully. Buy a developer a beer!
