                              Psi4 1.0.0 Driver

  ==> Input File <==

--------------------------------------------------------------------------
memory 24 Gb
molecule beN {
0 1
Be   0.0    0.0 0.0
Be   4.5    0.0 0.0
Be   9.0    0.0 0.0
Be  13.5    0.0 0.0
Be  18.0    0.0 0.0
Be  22.5    0.0 0.0
Be  27.0    0.0 0.0
Be  31.5    0.0 0.0
Be  36.0    0.0 0.0
Be  40.5    0.0 0.0
Be  45.0    0.0 0.0
Be  49.5    0.0 0.0
Be  54.0    0.0 0.0
Be  58.5    0.0 0.0
Be  63.0    0.0 0.0
Be  67.5    0.0 0.0
Be  72.0    0.0 0.0
Be  76.5    0.0 0.0
Be  81.0    0.0 0.0
Be  85.5    0.0 0.0
Be  90.0    0.0 0.0
Be  94.5    0.0 0.0
Be  99.0    0.0 0.0
units angstrom
}

set basis 6-31g
set freeze_core true
set PRINT_BASIS True
set PUREAM False
set E_CONVERGENCE 1e-10
energy('ccsd(t)')
--------------------------------------------------------------------------

    Molecular point group: d2h

    Geometry (in Angstrom), charge = 0, multiplicity = 1:

       Center              X                  Y                   Z               Mass
    ------------   -----------------  -----------------  -----------------  -----------------
          BE        -49.500000000000    -0.000000000000     0.000000000000     9.012182201000
          BE        -45.000000000000    -0.000000000000     0.000000000000     9.012182201000
          BE        -40.500000000000    -0.000000000000     0.000000000000     9.012182201000
          BE        -36.000000000000    -0.000000000000     0.000000000000     9.012182201000
          BE        -31.500000000000    -0.000000000000     0.000000000000     9.012182201000
          BE        -27.000000000000    -0.000000000000     0.000000000000     9.012182201000
          BE        -22.500000000000    -0.000000000000     0.000000000000     9.012182201000
          BE        -18.000000000000    -0.000000000000     0.000000000000     9.012182201000
          BE        -13.500000000000    -0.000000000000     0.000000000000     9.012182201000
          BE         -9.000000000000    -0.000000000000     0.000000000000     9.012182201000
          BE         -4.500000000000    -0.000000000000     0.000000000000     9.012182201000
          BE          0.000000000000     0.000000000000     0.000000000000     9.012182201000
          BE          4.500000000000     0.000000000000     0.000000000000     9.012182201000
          BE          9.000000000000     0.000000000000     0.000000000000     9.012182201000
          BE         13.500000000000     0.000000000000     0.000000000000     9.012182201000
          BE         18.000000000000     0.000000000000     0.000000000000     9.012182201000
          BE         22.500000000000     0.000000000000     0.000000000000     9.012182201000
          BE         27.000000000000     0.000000000000     0.000000000000     9.012182201000
          BE         31.500000000000     0.000000000000     0.000000000000     9.012182201000
          BE         36.000000000000     0.000000000000     0.000000000000     9.012182201000
          BE         40.500000000000     0.000000000000     0.000000000000     9.012182201000
          BE         45.000000000000     0.000000000000     0.000000000000     9.012182201000
          BE         49.500000000000     0.000000000000     0.000000000000     9.012182201000

  Charge       = 0
  Multiplicity = 1
  Basis Set: 6-31G

    Orbital Energies (a.u.)
    -----------------------

    Doubly Occupied:

       1Ag    -4.708045     1B3u   -4.708045     2B3u   -4.707928
       2Ag    -4.707928     3B3u   -4.707887     3Ag    -4.707887
       4Ag    -4.707871     4B3u   -4.707871     5B3u   -4.707863
       5Ag    -4.707863     6Ag    -4.707860     6B3u   -4.707860
       7Ag    -4.707858     7B3u   -4.707858     8Ag    -4.707857
       8B3u   -4.707856     9Ag    -4.707856     9B3u   -4.707855
      10Ag    -4.707854    10B3u   -4.707853    11Ag    -4.707852
      11B3u   -4.707374    12Ag    -4.707374    13Ag    -0.317449
      12B3u   -0.317111    14Ag    -0.316537    13B3u   -0.315730
      15Ag    -0.314696    14B3u   -0.313444    16Ag    -0.311986
      15B3u   -0.310337    17Ag    -0.308514    16B3u   -0.306540
      18Ag    -0.304438    17B3u   -0.302238    19Ag    -0.299973
      18B3u   -0.297678    20Ag    -0.295394    19B3u   -0.293164
      21Ag    -0.291035    20B3u   -0.289055    22Ag    -0.287270
      21B3u   -0.285728    23Ag    -0.284470    22B3u   -0.283536
      24Ag    -0.282954

  @RHF Final Energy:  -335.04138322679137

   => Energetics <=

    Nuclear Repulsion Energy =            118.3262906100983116
    One-Electron Energy =                -676.3160883125597138
    Two-Electron Energy =                 222.9484144756700061
    DFT Exchange-Correlation Energy =       0.0000000000000000
    Empirical Dispersion Energy =           0.0000000000000000
    PCM Polarization Energy =               0.0000000000000000
    EFP Energy =                            0.0000000000000000
    Total Energy =                       -335.0413832267913676
      * MP2 total energy                      = -335.586778767009434
      * CCSD total energy                     = -336.098152893069937
      * CCSD(T) total energy                  = -336.099606350254817
*** Psi4 exiting successfully. Buy a developer a beer!
