                              Psi4 1.0.0 Driver

  ==> Input File <==

--------------------------------------------------------------------------
memory 24 Gb
molecule beN {
0 1
Be   0.0    0.0 0.0
Be   4.5    0.0 0.0
Be   9.0    0.0 0.0
Be  13.5    0.0 0.0
Be  18.0    0.0 0.0
Be  22.5    0.0 0.0
Be  27.0    0.0 0.0
Be  31.5    0.0 0.0
Be  36.0    0.0 0.0
Be  40.5    0.0 0.0
Be  45.0    0.0 0.0
Be  49.5    0.0 0.0
Be  54.0    0.0 0.0
Be  58.5    0.0 0.0
Be  63.0    0.0 0.0
Be  67.5    0.0 0.0
Be  72.0    0.0 0.0
Be  76.5    0.0 0.0
Be  81.0    0.0 0.0
Be  85.5    0.0 0.0
Be  90.0    0.0 0.0
Be  94.5    0.0 0.0
Be  99.0    0.0 0.0
Be 103.5    0.0 0.0
Be 108.0    0.0 0.0
Be 112.5    0.0 0.0
Be 117.0    0.0 0.0
units angstrom
}

set basis 6-31g
set freeze_core true
set PRINT_BASIS True
set PUREAM False
set E_CONVERGENCE 1e-10
energy('ccsd(t)')
--------------------------------------------------------------------------

    Molecular point group: d2h

    Geometry (in Angstrom), charge = 0, multiplicity = 1:

       Center              X                  Y                   Z               Mass
    ------------   -----------------  -----------------  -----------------  -----------------
          BE        -58.500000000000    -0.000000000000     0.000000000000     9.012182201000
          BE        -54.000000000000    -0.000000000000     0.000000000000     9.012182201000
          BE        -49.500000000000    -0.000000000000     0.000000000000     9.012182201000
          BE        -45.000000000000    -0.000000000000     0.000000000000     9.012182201000
          BE        -40.500000000000    -0.000000000000     0.000000000000     9.012182201000
          BE        -36.000000000000    -0.000000000000     0.000000000000     9.012182201000
          BE        -31.500000000000    -0.000000000000     0.000000000000     9.012182201000
          BE        -27.000000000000    -0.000000000000     0.000000000000     9.012182201000
          BE        -22.500000000000    -0.000000000000     0.000000000000     9.012182201000
          BE        -18.000000000000    -0.000000000000     0.000000000000     9.012182201000
          BE        -13.500000000000    -0.000000000000     0.000000000000     9.012182201000
          BE         -9.000000000000    -0.000000000000     0.000000000000     9.012182201000
          BE         -4.500000000000    -0.000000000000     0.000000000000     9.012182201000
          BE          0.000000000000     0.000000000000     0.000000000000     9.012182201000
          BE          4.500000000000     0.000000000000     0.000000000000     9.012182201000
          BE          9.000000000000     0.000000000000     0.000000000000     9.012182201000
          BE         13.500000000000     0.000000000000     0.000000000000     9.012182201000
          BE         18.000000000000     0.000000000000     0.000000000000     9.012182201000
          BE         22.500000000000     0.000000000000     0.000000000000     9.012182201000
          BE         27.000000000000     0.000000000000     0.000000000000     9.012182201000
          BE         31.500000000000     0.000000000000     0.000000000000     9.012182201000
          BE         36.000000000000     0.000000000000     0.000000000000     9.012182201000
          BE         40.500000000000     0.000000000000     0.000000000000     9.012182201000
          BE         45.000000000000     0.000000000000     0.000000000000     9.012182201000
          BE         49.500000000000     0.000000000000     0.000000000000     9.012182201000
          BE         54.000000000000     0.000000000000     0.000000000000     9.012182201000
          BE         58.500000000000     0.000000000000     0.000000000000     9.012182201000

  Charge       = 0
  Multiplicity = 1
  Basis Set: 6-31G

    Orbital Energies (a.u.)
    -----------------------

    Doubly Occupied:

       1Ag    -4.708044     1B3u   -4.708044     2B3u   -4.707928
       2Ag    -4.707928     3Ag    -4.707887     3B3u   -4.707887
       4B3u   -4.707870     4Ag    -4.707870     5Ag    -4.707863
       5B3u   -4.707863     6Ag    -4.707859     6B3u   -4.707859
       7Ag    -4.707857     7B3u   -4.707857     8Ag    -4.707856
       8B3u   -4.707856     9Ag    -4.707855     9B3u   -4.707855
      10Ag    -4.707855    10B3u   -4.707854    11Ag    -4.707854
      11B3u   -4.707853    12Ag    -4.707852    12B3u   -4.707851
      13Ag    -4.707850    13B3u   -4.707374    14Ag    -4.707374
      15Ag    -0.317477    14B3u   -0.317229    16Ag    -0.316808
      15B3u   -0.316216    17Ag    -0.315454    16B3u   -0.314528
      18Ag    -0.313443    17B3u   -0.312207    19Ag    -0.310829
      18B3u   -0.309320    20Ag    -0.307692    19B3u   -0.305959
      21Ag    -0.304138    20B3u   -0.302248    22Ag    -0.300309
      21B3u   -0.298343    23Ag    -0.296377    22B3u   -0.294436
      24Ag    -0.292549    23B3u   -0.290745    25Ag    -0.289056
      24B3u   -0.287510    26Ag    -0.286139    25B3u   -0.284969
      27Ag    -0.284025    26B3u   -0.283330    28Ag    -0.282900

  @RHF Final Energy:  -393.30949329218606

   => Energetics <=

    Nuclear Repulsion Energy =            146.8889292906856952
    One-Electron Energy =                -809.9048566061296697
    Two-Electron Energy =                 269.7064340232577706
    DFT Exchange-Correlation Energy =       0.0000000000000000
    Empirical Dispersion Energy =           0.0000000000000000
    PCM Polarization Energy =               0.0000000000000000
    EFP Energy =                            0.0000000000000000
    Total Energy =                       -393.3094932921861755
      * MP2 total energy                      = -393.949828604471577
      * CCSD total energy                     = -394.550048331195967
      * CCSD(T) total energy                  = -394.551767088031454
*** Psi4 exiting successfully. Buy a developer a beer!
