 Q-Chem 5.0, Q-Chem, Inc., Pleasanton, CA (2017)
 Q-Chem 5.0.0 for Intel X86 EM64T Linux

User input:
--------------------------------------------------------------
$molecule
0 1
Be1
Be2 Be1 100.0
$end

$rem
method = hf
basis = 6-31g
$end
--------------------------------------------------------------

             Standard Nuclear Orientation (Angstroms)
    I     Atom           X                Y                Z
 ----------------------------------------------------------------
    1      Be      0.0000000000     0.0000000000   -50.0000000000
    2      Be      0.0000000000     0.0000000000    50.0000000000
 ----------------------------------------------------------------

    2     -29.1335280694      1.80E-09 Convergence criterion met
 Total energy in the final basis set = -29.1335280694

                    Orbital Energies (a.u.)
 --------------------------------------------------------------

 Alpha MOs
 -- Occupied --
 -4.707  -4.707  -0.301  -0.301

          Ground-State Mulliken Net Atomic Charges

     Atom                 Charge (a.u.)
  ----------------------------------------
      1 Be                    0.000000
      2 Be                   -0.000000
  ----------------------------------------
  Sum of atomic charges =    -0.000000

                    Cartesian Multipole Moments
 -----------------------------------------------------------------
    Charge (ESU x 10^10)
                 0.0000
    Dipole Moment (Debye)
         X      -0.0000      Y      -0.0000      Z      -0.0000
       Tot       0.0000
    Quadrupole Moments (Debye-Ang)
        XX     -14.1221     XY      -0.0000     YY     -14.1221
        XZ       0.0000     YZ       0.0000     ZZ     -14.1221

 Total job time:  0.05s(wall), 0.05s(cpu)
        *  Thank you very much for using Q-Chem.  Have a nice day.  *
