                              Psi4 1.0.0 Driver

  ==> Input File <==

--------------------------------------------------------------------------
memory 24 Gb
molecule beN {
0 1
Be   0.0    0.0 0.0
Be   4.5    0.0 0.0
units angstrom
}

set basis 6-31g
set freeze_core true
set PRINT_BASIS True
set PUREAM False
set E_CONVERGENCE 1e-10
energy('ccsd(t)')
--------------------------------------------------------------------------

    Molecular point group: d2h

    Geometry (in Angstrom), charge = 0, multiplicity = 1:

       Center              X                  Y                   Z               Mass
    ------------   -----------------  -----------------  -----------------  -----------------
          BE         -2.250000000000    -0.000000000000     0.000000000000     9.012182201000
          BE          2.250000000000     0.000000000000     0.000000000000     9.012182201000

  Charge       = 0
  Multiplicity = 1
  Basis Set: 6-31G

    Orbital Energies (a.u.)
    -----------------------

    Doubly Occupied:

       1B3u   -4.707584     1Ag    -4.707580     2Ag    -0.310071
       2B3u   -0.292850

  @RHF Final Energy:   -29.13380429349635

   => Energetics <=

    Nuclear Repulsion Energy =              1.8815189638755554
    One-Electron Energy =                 -41.9944762204403190
    Two-Electron Energy =                  10.9791529630684153
    DFT Exchange-Correlation Energy =       0.0000000000000000
    Empirical Dispersion Energy =           0.0000000000000000
    PCM Polarization Energy =               0.0000000000000000
    EFP Energy =                            0.0000000000000000
    Total Energy =                        -29.1338042934963468
      * MP2 total energy                      =  -29.180769261133690
      * CCSD total energy                     =  -29.225703143802811
      * CCSD(T) total energy                  =  -29.225764276011677
*** Psi4 exiting successfully. Buy a developer a beer!
