                              Psi4 1.0.0 Driver

  ==> Input File <==

--------------------------------------------------------------------------
memory 24 Gb
molecule beN {
0 1
Be   0.0    0.0 0.0
Be   4.5    0.0 0.0
Be   9.0    0.0 0.0
Be  13.5    0.0 0.0
Be  18.0    0.0 0.0
Be  22.5    0.0 0.0
Be  27.0    0.0 0.0
units angstrom
}

set basis 6-31g
set freeze_core true
set PRINT_BASIS True
set PUREAM False
set E_CONVERGENCE 1e-10
energy('ccsd(t)')
--------------------------------------------------------------------------

    Molecular point group: d2h

    Geometry (in Angstrom), charge = 0, multiplicity = 1:

       Center              X                  Y                   Z               Mass
    ------------   -----------------  -----------------  -----------------  -----------------
          BE        -13.500000000000    -0.000000000000     0.000000000000     9.012182201000
          BE         -9.000000000000    -0.000000000000     0.000000000000     9.012182201000
          BE         -4.500000000000    -0.000000000000     0.000000000000     9.012182201000
          BE          0.000000000000     0.000000000000     0.000000000000     9.012182201000
          BE          4.500000000000     0.000000000000     0.000000000000     9.012182201000
          BE          9.000000000000     0.000000000000     0.000000000000     9.012182201000
          BE         13.500000000000     0.000000000000     0.000000000000     9.012182201000

  Charge       = 0
  Multiplicity = 1
  Basis Set: 6-31G

    Orbital Energies (a.u.)
    -----------------------

    Doubly Occupied:

       1B3u   -4.708056     1Ag    -4.708056     2B3u   -4.707947
       2Ag    -4.707947     3Ag    -4.707922     3B3u   -4.707382
       4Ag    -4.707382     5Ag    -0.316583     4B3u   -0.313446
       6Ag    -0.308428     5B3u   -0.302099     7Ag    -0.295285
       6B3u   -0.289038     8Ag    -0.284513

  @RHF Final Energy:  -101.96894295867281

   => Energetics <=

    Nuclear Repulsion Energy =             20.9789364472124404
    One-Electron Energy =                -175.7675885963303131
    Two-Electron Energy =                  52.8197091904450744
    DFT Exchange-Correlation Energy =       0.0000000000000000
    Empirical Dispersion Energy =           0.0000000000000000
    PCM Polarization Energy =               0.0000000000000000
    EFP Energy =                            0.0000000000000000
    Total Energy =                       -101.9689429586727840
      * MP2 total energy                      = -102.134579427976774
      * CCSD total energy                     = -102.290571146610390
      * CCSD(T) total energy                  = -102.290963406314901
*** Psi4 exiting successfully. Buy a developer a beer!
