                              Psi4 1.0.0 Driver

  ==> Input File <==

--------------------------------------------------------------------------
memory 24 Gb
molecule beN {
0 1
Be   0.0    0.0 0.0
Be   4.5    0.0 0.0
Be   9.0    0.0 0.0
units angstrom
}

set basis 6-31g
set freeze_core true
set PRINT_BASIS True
set PUREAM False
set E_CONVERGENCE 1e-10
energy('ccsd(t)')
--------------------------------------------------------------------------

    Molecular point group: d2h

    Geometry (in Angstrom), charge = 0, multiplicity = 1:

       Center              X                  Y                   Z               Mass
    ------------   -----------------  -----------------  -----------------  -----------------
          BE         -4.500000000000    -0.000000000000     0.000000000000     9.012182201000
          BE         -0.000000000000     0.000000000000     0.000000000000     9.012182201000
          BE          4.500000000000     0.000000000000     0.000000000000     9.012182201000

  Charge       = 0
  Multiplicity = 1
  Basis Set: 6-31G

    Orbital Energies (a.u.)
    -----------------------

    Doubly Occupied:

       1Ag    -4.708241     1B3u   -4.707456     2Ag    -4.707455
       3Ag    -0.313427     2B3u   -0.301871     4Ag    -0.288998

  @RHF Final Energy:   -43.70083268004527

   => Energetics <=

    Nuclear Repulsion Energy =              4.7037974096888888
    One-Electron Energy =                 -66.7543661496943912
    Two-Electron Energy =                  18.3497360599602217
    DFT Exchange-Correlation Energy =       0.0000000000000000
    Empirical Dispersion Energy =           0.0000000000000000
    PCM Polarization Energy =               0.0000000000000000
    EFP Energy =                            0.0000000000000000
    Total Energy =                        -43.7008326800452807
      * MP2 total energy                      =  -43.771529924120081
      * CCSD total energy                     =  -43.838675973455828
      * CCSD(T) total energy                  =  -43.838803002378697
*** Psi4 exiting successfully. Buy a developer a beer!
