                              Psi4 1.0.0 Driver

  ==> Input File <==

--------------------------------------------------------------------------
memory 24 Gb
molecule beN {
0 1
Be   0.0    0.0 0.0
Be   4.5    0.0 0.0
Be   9.0    0.0 0.0
Be  13.5    0.0 0.0
Be  18.0    0.0 0.0
Be  22.5    0.0 0.0
Be  27.0    0.0 0.0
Be  31.5    0.0 0.0
Be  36.0    0.0 0.0
Be  40.5    0.0 0.0
units angstrom
}

set basis 6-31g
set freeze_core true
set PRINT_BASIS True
set PUREAM False
set E_CONVERGENCE 1e-10
energy('ccsd(t)')
--------------------------------------------------------------------------

    Molecular point group: d2h

    Geometry (in Angstrom), charge = 0, multiplicity = 1:

       Center              X                  Y                   Z               Mass
    ------------   -----------------  -----------------  -----------------  -----------------
          BE        -20.250000000000    -0.000000000000     0.000000000000     9.012182201000
          BE        -15.750000000000    -0.000000000000     0.000000000000     9.012182201000
          BE        -11.250000000000    -0.000000000000     0.000000000000     9.012182201000
          BE         -6.750000000000    -0.000000000000     0.000000000000     9.012182201000
          BE         -2.250000000000    -0.000000000000     0.000000000000     9.012182201000
          BE          2.250000000000     0.000000000000     0.000000000000     9.012182201000
          BE          6.750000000000     0.000000000000     0.000000000000     9.012182201000
          BE         11.250000000000     0.000000000000     0.000000000000     9.012182201000
          BE         15.750000000000     0.000000000000     0.000000000000     9.012182201000
          BE         20.250000000000     0.000000000000     0.000000000000     9.012182201000

  Charge       = 0
  Multiplicity = 1
  Basis Set: 6-31G

    Orbital Energies (a.u.)
    -----------------------

    Doubly Occupied:

       1B3u   -4.708048     1Ag    -4.708048     2B3u   -4.707933
       2Ag    -4.707933     3B3u   -4.707894     3Ag    -4.707894
       4B3u   -4.707883     4Ag    -4.707880     5B3u   -4.707377
       5Ag    -4.707377     6Ag    -0.317048     6B3u   -0.315403
       7Ag    -0.312667     7B3u   -0.308982     8Ag    -0.304559
       8B3u   -0.299684     9Ag    -0.294719     9B3u   -0.290094
      10Ag    -0.286275    10B3u   -0.283703

  @RHF Final Energy:  -145.67002551276124

   => Energetics <=

    Nuclear Repulsion Energy =             36.2939035055518815
    One-Electron Energy =                -263.7450479760550479
    Two-Electron Energy =                  81.7811189577418816
    DFT Exchange-Correlation Energy =       0.0000000000000000
    Empirical Dispersion Energy =           0.0000000000000000
    PCM Polarization Energy =               0.0000000000000000
    EFP Energy =                            0.0000000000000000
    Total Energy =                       -145.6700255127612706
      * MP2 total energy                      = -145.906866797553732
      * CCSD total energy                     = -146.129492719526496
      * CCSD(T) total energy                  = -146.130083953078554
*** Psi4 exiting successfully. Buy a developer a beer!
