                              Psi4 1.0.0 Driver

  ==> Input File <==

--------------------------------------------------------------------------
memory 24 Gb
molecule beN {
0 1
Be   0.0    0.0 0.0
Be   4.5    0.0 0.0
Be   9.0    0.0 0.0
Be  13.5    0.0 0.0
Be  18.0    0.0 0.0
Be  22.5    0.0 0.0
Be  27.0    0.0 0.0
Be  31.5    0.0 0.0
Be  36.0    0.0 0.0
Be  40.5    0.0 0.0
Be  45.0    0.0 0.0
units angstrom
}

set basis 6-31g
set freeze_core true
set PRINT_BASIS True
set PUREAM False
set E_CONVERGENCE 1e-10
energy('ccsd(t)')
--------------------------------------------------------------------------

    Molecular point group: d2h

    Geometry (in Angstrom), charge = 0, multiplicity = 1:

       Center              X                  Y                   Z               Mass
    ------------   -----------------  -----------------  -----------------  -----------------
          BE        -22.500000000000    -0.000000000000     0.000000000000     9.012182201000
          BE        -18.000000000000    -0.000000000000     0.000000000000     9.012182201000
          BE        -13.500000000000    -0.000000000000     0.000000000000     9.012182201000
          BE         -9.000000000000    -0.000000000000     0.000000000000     9.012182201000
          BE         -4.500000000000    -0.000000000000     0.000000000000     9.012182201000
          BE          0.000000000000    -0.000000000000     0.000000000000     9.012182201000
          BE          4.500000000000     0.000000000000     0.000000000000     9.012182201000
          BE          9.000000000000     0.000000000000     0.000000000000     9.012182201000
          BE         13.500000000000     0.000000000000     0.000000000000     9.012182201000
          BE         18.000000000000     0.000000000000     0.000000000000     9.012182201000
          BE         22.500000000000     0.000000000000     0.000000000000     9.012182201000

  Charge       = 0
  Multiplicity = 1
  Basis Set: 6-31G

    Orbital Energies (a.u.)
    -----------------------

    Doubly Occupied:

       1B3u   -4.708047     1Ag    -4.708047     2B3u   -4.707932
       2Ag    -4.707932     3B3u   -4.707892     3Ag    -4.707892
       4Ag    -4.707878     4B3u   -4.707878     5Ag    -4.707873
       5B3u   -4.707376     6Ag    -4.707376     7Ag    -0.317130
       6B3u   -0.315752     8Ag    -0.313446     7B3u   -0.310309
       9Ag    -0.306486     8B3u   -0.302170    10Ag    -0.297614
       9B3u   -0.293124    11Ag    -0.289047    10B3u   -0.285746
      12Ag    -0.283554

  @RHF Final Energy:  -160.23705302960869

   => Energetics <=

    Nuclear Repulsion Energy =             41.8048128199826223
    One-Electron Energy =                -293.8827220282142321
    Two-Electron Energy =                  91.8408561786229427
    DFT Exchange-Correlation Energy =       0.0000000000000000
    Empirical Dispersion Energy =           0.0000000000000000
    PCM Polarization Energy =               0.0000000000000000
    EFP Energy =                            0.0000000000000000
    Total Energy =                       -160.2370530296086599
      * MP2 total energy                      = -160.497629256091102
      * CCSD total energy                     = -160.742466578717313
      * CCSD(T) total energy                  = -160.743124137100779
*** Psi4 exiting successfully. Buy a developer a beer!
