                              Psi4 1.0.0 Driver

  ==> Input File <==

--------------------------------------------------------------------------
memory 24 Gb
molecule beN {
0 1
Be   0.0    0.0 0.0
Be   4.5    0.0 0.0
Be   9.0    0.0 0.0
Be  13.5    0.0 0.0
Be  18.0    0.0 0.0
Be  22.5    0.0 0.0
Be  27.0    0.0 0.0
Be  31.5    0.0 0.0
Be  36.0    0.0 0.0
Be  40.5    0.0 0.0
Be  45.0    0.0 0.0
Be  49.5    0.0 0.0
Be  54.0    0.0 0.0
Be  58.5    0.0 0.0
Be  63.0    0.0 0.0
Be  67.5    0.0 0.0
Be  72.0    0.0 0.0
Be  76.5    0.0 0.0
Be  81.0    0.0 0.0
units angstrom
}

set basis 6-31g
set freeze_core true
set PRINT_BASIS True
set PUREAM False
set E_CONVERGENCE 1e-10
energy('ccsd(t)')
--------------------------------------------------------------------------

    Molecular point group: d2h

    Geometry (in Angstrom), charge = 0, multiplicity = 1:

       Center              X                  Y                   Z               Mass
    ------------   -----------------  -----------------  -----------------  -----------------
          BE        -40.500000000000    -0.000000000000     0.000000000000     9.012182201000
          BE        -36.000000000000    -0.000000000000     0.000000000000     9.012182201000
          BE        -31.500000000000    -0.000000000000     0.000000000000     9.012182201000
          BE        -27.000000000000    -0.000000000000     0.000000000000     9.012182201000
          BE        -22.500000000000    -0.000000000000     0.000000000000     9.012182201000
          BE        -18.000000000000    -0.000000000000     0.000000000000     9.012182201000
          BE        -13.500000000000    -0.000000000000     0.000000000000     9.012182201000
          BE         -9.000000000000    -0.000000000000     0.000000000000     9.012182201000
          BE         -4.500000000000    -0.000000000000     0.000000000000     9.012182201000
          BE          0.000000000000    -0.000000000000     0.000000000000     9.012182201000
          BE          4.500000000000     0.000000000000     0.000000000000     9.012182201000
          BE          9.000000000000     0.000000000000     0.000000000000     9.012182201000
          BE         13.500000000000     0.000000000000     0.000000000000     9.012182201000
          BE         18.000000000000     0.000000000000     0.000000000000     9.012182201000
          BE         22.500000000000     0.000000000000     0.000000000000     9.012182201000
          BE         27.000000000000     0.000000000000     0.000000000000     9.012182201000
          BE         31.500000000000     0.000000000000     0.000000000000     9.012182201000
          BE         36.000000000000     0.000000000000     0.000000000000     9.012182201000
          BE         40.500000000000     0.000000000000     0.000000000000     9.012182201000

  Charge       = 0
  Multiplicity = 1
  Basis Set: 6-31G

    Orbital Energies (a.u.)
    -----------------------

    Doubly Occupied:

       1Ag    -4.708045     1B3u   -4.708045     2Ag    -4.707929
       2B3u   -4.707929     3B3u   -4.707888     3Ag    -4.707888
       4B3u   -4.707871     4Ag    -4.707871     5Ag    -4.707864
       5B3u   -4.707864     6Ag    -4.707860     6B3u   -4.707860
       7Ag    -4.707859     7B3u   -4.707858     8Ag    -4.707857
       8B3u   -4.707856     9Ag    -4.707854     9B3u   -4.707374
      10Ag    -4.707374    11Ag    -0.317403    10B3u   -0.316914
      12Ag    -0.316085    11B3u   -0.314924    13Ag    -0.313444
      12B3u   -0.311668    14Ag    -0.309621    13B3u   -0.307337
      15Ag    -0.304855    14B3u   -0.302225    16Ag    -0.299501
      15B3u   -0.296749    17Ag    -0.294038    16B3u   -0.291446
      18Ag    -0.289054    17B3u   -0.286943    19Ag    -0.285193
      18B3u   -0.283873    20Ag    -0.283043

  @RHF Final Energy:  -276.77327316135063

   => Energetics <=

    Nuclear Repulsion Energy =             91.0787891187392091
    One-Electron Energy =                -545.3576001548585737
    Two-Electron Energy =                 177.5055378747687485
    DFT Exchange-Correlation Energy =       0.0000000000000000
    Empirical Dispersion Energy =           0.0000000000000000
    PCM Polarization Energy =               0.0000000000000000
    EFP Energy =                            0.0000000000000000
    Total Energy =                       -276.7732731613506303
      * MP2 total energy                      = -277.223728929589981
      * CCSD total energy                     = -277.646257454866372
      * CCSD(T) total energy                  = -277.647445612406557
*** Psi4 exiting successfully. Buy a developer a beer!
