                              Psi4 1.0.0 Driver

  ==> Input File <==

--------------------------------------------------------------------------
memory 24 Gb
molecule beN {
0 1
Be   0.0    0.0 0.0
Be   4.5    0.0 0.0
Be   9.0    0.0 0.0
Be  13.5    0.0 0.0
Be  18.0    0.0 0.0
Be  22.5    0.0 0.0
Be  27.0    0.0 0.0
Be  31.5    0.0 0.0
Be  36.0    0.0 0.0
Be  40.5    0.0 0.0
Be  45.0    0.0 0.0
Be  49.5    0.0 0.0
Be  54.0    0.0 0.0
Be  58.5    0.0 0.0
Be  63.0    0.0 0.0
Be  67.5    0.0 0.0
units angstrom
}

set basis 6-31g
set freeze_core true
set PRINT_BASIS True
set PUREAM False
set E_CONVERGENCE 1e-10
energy('ccsd(t)')
--------------------------------------------------------------------------

    Molecular point group: d2h

    Geometry (in Angstrom), charge = 0, multiplicity = 1:

       Center              X                  Y                   Z               Mass
    ------------   -----------------  -----------------  -----------------  -----------------
          BE        -33.750000000000    -0.000000000000     0.000000000000     9.012182201000
          BE        -29.250000000000    -0.000000000000     0.000000000000     9.012182201000
          BE        -24.750000000000    -0.000000000000     0.000000000000     9.012182201000
          BE        -20.250000000000    -0.000000000000     0.000000000000     9.012182201000
          BE        -15.750000000000    -0.000000000000     0.000000000000     9.012182201000
          BE        -11.250000000000    -0.000000000000     0.000000000000     9.012182201000
          BE         -6.750000000000    -0.000000000000     0.000000000000     9.012182201000
          BE         -2.250000000000    -0.000000000000     0.000000000000     9.012182201000
          BE          2.250000000000     0.000000000000     0.000000000000     9.012182201000
          BE          6.750000000000     0.000000000000     0.000000000000     9.012182201000
          BE         11.250000000000     0.000000000000     0.000000000000     9.012182201000
          BE         15.750000000000     0.000000000000     0.000000000000     9.012182201000
          BE         20.250000000000     0.000000000000     0.000000000000     9.012182201000
          BE         24.750000000000     0.000000000000     0.000000000000     9.012182201000
          BE         29.250000000000     0.000000000000     0.000000000000     9.012182201000
          BE         33.750000000000     0.000000000000     0.000000000000     9.012182201000

  Charge       = 0
  Multiplicity = 1
  Basis Set: 6-31G

    Orbital Energies (a.u.)
    -----------------------

    Doubly Occupied:

       1B3u   -4.708045     1Ag    -4.708045     2B3u   -4.707929
       2Ag    -4.707929     3B3u   -4.707888     3Ag    -4.707888
       4B3u   -4.707872     4Ag    -4.707872     5B3u   -4.707865
       5Ag    -4.707865     6B3u   -4.707862     6Ag    -4.707862
       7B3u   -4.707860     7Ag    -4.707858     8B3u   -4.707375
       8Ag    -4.707375     9Ag    -0.317344     9B3u   -0.316665
      10Ag    -0.315515    10B3u   -0.313913    11Ag    -0.311889
      11B3u   -0.309486    12Ag    -0.306758    12B3u   -0.303774
      13Ag    -0.300616    13B3u   -0.297382    14Ag    -0.294185
      14B3u   -0.291147    15Ag    -0.288400    15B3u   -0.286073
      16Ag    -0.284290    16B3u   -0.283155

  @RHF Final Energy:  -233.07219061219092

   => Energetics <=

    Nuclear Repulsion Energy =             71.6701879777393316
    One-Electron Energy =                -449.1927905314389022
    Two-Electron Energy =                 144.4504119415087189
    DFT Exchange-Correlation Energy =       0.0000000000000000
    Empirical Dispersion Energy =           0.0000000000000000
    PCM Polarization Energy =               0.0000000000000000
    EFP Energy =                            0.0000000000000000
    Total Energy =                       -233.0721906121908660
      * MP2 total energy                      = -233.451441551630012
      * CCSD total energy                     = -233.807335876186329
      * CCSD(T) total energy                  = -233.808325059004119
*** Psi4 exiting successfully. Buy a developer a beer!
