                              Psi4 1.0.0 Driver

  ==> Input File <==

--------------------------------------------------------------------------
memory 24 Gb
molecule beN {
0 1
Be   0.0    0.0 0.0
Be   4.5    0.0 0.0
Be   9.0    0.0 0.0
Be  13.5    0.0 0.0
Be  18.0    0.0 0.0
Be  22.5    0.0 0.0
Be  27.0    0.0 0.0
Be  31.5    0.0 0.0
Be  36.0    0.0 0.0
Be  40.5    0.0 0.0
Be  45.0    0.0 0.0
Be  49.5    0.0 0.0
Be  54.0    0.0 0.0
Be  58.5    0.0 0.0
Be  63.0    0.0 0.0
Be  67.5    0.0 0.0
Be  72.0    0.0 0.0
Be  76.5    0.0 0.0
units angstrom
}

set basis 6-31g
set freeze_core true
set PRINT_BASIS True
set PUREAM False
set E_CONVERGENCE 1e-10
energy('ccsd(t)')
--------------------------------------------------------------------------

    Molecular point group: d2h

    Geometry (in Angstrom), charge = 0, multiplicity = 1:

       Center              X                  Y                   Z               Mass
    ------------   -----------------  -----------------  -----------------  -----------------
          BE        -38.250000000000    -0.000000000000     0.000000000000     9.012182201000
          BE        -33.750000000000    -0.000000000000     0.000000000000     9.012182201000
          BE        -29.250000000000    -0.000000000000     0.000000000000     9.012182201000
          BE        -24.750000000000    -0.000000000000     0.000000000000     9.012182201000
          BE        -20.250000000000    -0.000000000000     0.000000000000     9.012182201000
          BE        -15.750000000000    -0.000000000000     0.000000000000     9.012182201000
          BE        -11.250000000000    -0.000000000000     0.000000000000     9.012182201000
          BE         -6.750000000000    -0.000000000000     0.000000000000     9.012182201000
          BE         -2.250000000000    -0.000000000000     0.000000000000     9.012182201000
          BE          2.250000000000     0.000000000000     0.000000000000     9.012182201000
          BE          6.750000000000     0.000000000000     0.000000000000     9.012182201000
          BE         11.250000000000     0.000000000000     0.000000000000     9.012182201000
          BE         15.750000000000     0.000000000000     0.000000000000     9.012182201000
          BE         20.250000000000     0.000000000000     0.000000000000     9.012182201000
          BE         24.750000000000     0.000000000000     0.000000000000     9.012182201000
          BE         29.250000000000     0.000000000000     0.000000000000     9.012182201000
          BE         33.750000000000     0.000000000000     0.000000000000     9.012182201000
          BE         38.250000000000     0.000000000000     0.000000000000     9.012182201000

  Charge       = 0
  Multiplicity = 1
  Basis Set: 6-31G

    Orbital Energies (a.u.)
    -----------------------

    Doubly Occupied:

       1B3u   -4.708045     1Ag    -4.708045     2B3u   -4.707929
       2Ag    -4.707929     3B3u   -4.707888     3Ag    -4.707888
       4B3u   -4.707871     4Ag    -4.707871     5B3u   -4.707864
       5Ag    -4.707864     6B3u   -4.707861     6Ag    -4.707861
       7B3u   -4.707860     7Ag    -4.707859     8B3u   -4.707857
       8Ag    -4.707855     9B3u   -4.707374     9Ag    -4.707374
      10Ag    -0.317386    10B3u   -0.316844    11Ag    -0.315925
      11B3u   -0.314639    12Ag    -0.313005    12B3u   -0.311048
      13Ag    -0.308803    13B3u   -0.306310    14Ag    -0.303621
      14B3u   -0.300795    15Ag    -0.297903    15B3u   -0.295023
      16Ag    -0.292244    16B3u   -0.289658    17Ag    -0.287360
      17B3u   -0.285443    18Ag    -0.283991    18B3u   -0.283075

  @RHF Final Energy:  -262.20624564497541

   => Energetics <=

    Nuclear Repulsion Energy =             84.5026769888181803
    One-Electron Energy =                -513.0895059755471266
    Two-Electron Energy =                 166.3805833417535496
    DFT Exchange-Correlation Energy =       0.0000000000000000
    Empirical Dispersion Energy =           0.0000000000000000
    PCM Polarization Energy =               0.0000000000000000
    EFP Energy =                            0.0000000000000000
    Total Energy =                       -262.2062456449754109
      * MP2 total energy                      = -262.632966470253450
      * CCSD total energy                     = -263.033283595306671
      * CCSD(T) total energy                  = -263.034405427937770
*** Psi4 exiting successfully. Buy a developer a beer!
