                              Psi4 1.0.0 Driver

  ==> Input File <==

--------------------------------------------------------------------------
memory 24 Gb
molecule beN {
0 1
Be   0.0    0.0 0.0
Be   4.5    0.0 0.0
Be   9.0    0.0 0.0
Be  13.5    0.0 0.0
Be  18.0    0.0 0.0
Be  22.5    0.0 0.0
Be  27.0    0.0 0.0
Be  31.5    0.0 0.0
Be  36.0    0.0 0.0
Be  40.5    0.0 0.0
Be  45.0    0.0 0.0
Be  49.5    0.0 0.0
Be  54.0    0.0 0.0
units angstrom
}

set basis 6-31g
set freeze_core true
set PRINT_BASIS True
set PUREAM False
set E_CONVERGENCE 1e-10
energy('ccsd(t)')
--------------------------------------------------------------------------

    Molecular point group: d2h

    Geometry (in Angstrom), charge = 0, multiplicity = 1:

       Center              X                  Y                   Z               Mass
    ------------   -----------------  -----------------  -----------------  -----------------
          BE        -27.000000000000    -0.000000000000     0.000000000000     9.012182201000
          BE        -22.500000000000    -0.000000000000     0.000000000000     9.012182201000
          BE        -18.000000000000    -0.000000000000     0.000000000000     9.012182201000
          BE        -13.500000000000    -0.000000000000     0.000000000000     9.012182201000
          BE         -9.000000000000    -0.000000000000     0.000000000000     9.012182201000
          BE         -4.500000000000    -0.000000000000     0.000000000000     9.012182201000
          BE          0.000000000000    -0.000000000000     0.000000000000     9.012182201000
          BE          4.500000000000     0.000000000000     0.000000000000     9.012182201000
          BE          9.000000000000     0.000000000000     0.000000000000     9.012182201000
          BE         13.500000000000     0.000000000000     0.000000000000     9.012182201000
          BE         18.000000000000     0.000000000000     0.000000000000     9.012182201000
          BE         22.500000000000     0.000000000000     0.000000000000     9.012182201000
          BE         27.000000000000     0.000000000000     0.000000000000     9.012182201000

  Charge       = 0
  Multiplicity = 1
  Basis Set: 6-31G

    Orbital Energies (a.u.)
    -----------------------

    Doubly Occupied:

       1B3u   -4.708046     1Ag    -4.708046     2B3u   -4.707930
       2Ag    -4.707930     3B3u   -4.707890     3Ag    -4.707890
       4B3u   -4.707874     4Ag    -4.707874     5Ag    -4.707869
       5B3u   -4.707868     6Ag    -4.707865     6B3u   -4.707375
       7Ag    -4.707375     8Ag    -0.317244     7B3u   -0.316237
       9Ag    -0.314539     8B3u   -0.312199    10Ag    -0.309290
       9B3u   -0.305911    11Ag    -0.302190    10B3u   -0.298288
      12Ag    -0.294395    11B3u   -0.290727    13Ag    -0.287516
      12B3u   -0.284987    14Ag    -0.283344

  @RHF Final Energy:  -189.37110806283229

   => Energetics <=

    Nuclear Repulsion Energy =             53.3255190529020027
    One-Electron Energy =                -355.1558556088732530
    Two-Electron Energy =                 112.4592284931390083
    DFT Exchange-Correlation Energy =       0.0000000000000000
    Empirical Dispersion Energy =           0.0000000000000000
    PCM Polarization Energy =               0.0000000000000000
    EFP Energy =                            0.0000000000000000
    Total Energy =                       -189.3711080628322634
      * MP2 total energy                      = -189.679154173982653
      * CCSD total energy                     = -189.968414297569694
      * CCSD(T) total energy                  = -189.969204505695757
*** Psi4 exiting successfully. Buy a developer a beer!
