                              Psi4 1.0.0 Driver

  ==> Input File <==

--------------------------------------------------------------------------
memory 24 Gb
molecule beN {
0 1
Be   0.0    0.0 0.0
Be   4.5    0.0 0.0
Be   9.0    0.0 0.0
Be  13.5    0.0 0.0
Be  18.0    0.0 0.0
Be  22.5    0.0 0.0
Be  27.0    0.0 0.0
Be  31.5    0.0 0.0
Be  36.0    0.0 0.0
Be  40.5    0.0 0.0
Be  45.0    0.0 0.0
Be  49.5    0.0 0.0
Be  54.0    0.0 0.0
Be  58.5    0.0 0.0
Be  63.0    0.0 0.0
Be  67.5    0.0 0.0
Be  72.0    0.0 0.0
Be  76.5    0.0 0.0
Be  81.0    0.0 0.0
Be  85.5    0.0 0.0
units angstrom
}

set basis 6-31g
set freeze_core true
set PRINT_BASIS True
set PUREAM False
set E_CONVERGENCE 1e-10
energy('ccsd(t)')
--------------------------------------------------------------------------

    Molecular point group: d2h

    Geometry (in Angstrom), charge = 0, multiplicity = 1:

       Center              X                  Y                   Z               Mass
    ------------   -----------------  -----------------  -----------------  -----------------
          BE        -42.750000000000    -0.000000000000     0.000000000000     9.012182201000
          BE        -38.250000000000    -0.000000000000     0.000000000000     9.012182201000
          BE        -33.750000000000    -0.000000000000     0.000000000000     9.012182201000
          BE        -29.250000000000    -0.000000000000     0.000000000000     9.012182201000
          BE        -24.750000000000    -0.000000000000     0.000000000000     9.012182201000
          BE        -20.250000000000    -0.000000000000     0.000000000000     9.012182201000
          BE        -15.750000000000    -0.000000000000     0.000000000000     9.012182201000
          BE        -11.250000000000    -0.000000000000     0.000000000000     9.012182201000
          BE         -6.750000000000    -0.000000000000     0.000000000000     9.012182201000
          BE         -2.250000000000    -0.000000000000     0.000000000000     9.012182201000
          BE          2.250000000000     0.000000000000     0.000000000000     9.012182201000
          BE          6.750000000000     0.000000000000     0.000000000000     9.012182201000
          BE         11.250000000000     0.000000000000     0.000000000000     9.012182201000
          BE         15.750000000000     0.000000000000     0.000000000000     9.012182201000
          BE         20.250000000000     0.000000000000     0.000000000000     9.012182201000
          BE         24.750000000000     0.000000000000     0.000000000000     9.012182201000
          BE         29.250000000000     0.000000000000     0.000000000000     9.012182201000
          BE         33.750000000000     0.000000000000     0.000000000000     9.012182201000
          BE         38.250000000000     0.000000000000     0.000000000000     9.012182201000
          BE         42.750000000000     0.000000000000     0.000000000000     9.012182201000

  Charge       = 0
  Multiplicity = 1
  Basis Set: 6-31G

    Orbital Energies (a.u.)
    -----------------------

    Doubly Occupied:

       1Ag    -4.708045     1B3u   -4.708045     2B3u   -4.707928
       2Ag    -4.707928     3Ag    -4.707887     3B3u   -4.707887
       4B3u   -4.707871     4Ag    -4.707871     5B3u   -4.707864
       5Ag    -4.707864     6B3u   -4.707860     6Ag    -4.707860
       7B3u   -4.707858     7Ag    -4.707858     8B3u   -4.707857
       8Ag    -4.707856     9B3u   -4.707855     9Ag    -4.707854
      10B3u   -4.707374    10Ag    -4.707374    11Ag    -0.317417
      11B3u   -0.316974    12Ag    -0.316223    12B3u   -0.315169
      13Ag    -0.313824    13B3u   -0.312205    14Ag    -0.310333
      14B3u   -0.308235    15Ag    -0.305943    15B3u   -0.303496
      16Ag    -0.300940    16B3u   -0.298325    17Ag    -0.295710
      17B3u   -0.293159    18Ag    -0.290739    18B3u   -0.288523
      19Ag    -0.286579    19B3u   -0.284975    20Ag    -0.283771
      20B3u   -0.283016

  @RHF Final Energy:  -291.34030067771772

   => Energetics <=

    Nuclear Repulsion Energy =             97.7539285625484382
    One-Electron Energy =                -577.8237495982534710
    Two-Electron Energy =                 188.7295203579873828
    DFT Exchange-Correlation Energy =       0.0000000000000000
    Empirical Dispersion Energy =           0.0000000000000000
    PCM Polarization Energy =               0.0000000000000000
    EFP Energy =                            0.0000000000000000
    Total Energy =                       -291.3403006777176643
      * MP2 total energy                      = -291.814491388936403
      * CCSD total energy                     = -292.259231314423346
      * CCSD(T) total energy                  = -292.260485796873752
*** Psi4 exiting successfully. Buy a developer a beer!
