                              Psi4 1.0.0 Driver

  ==> Input File <==

--------------------------------------------------------------------------
memory 24 Gb
molecule beN {
0 1
Be   0.0    0.0 0.0
Be   4.5    0.0 0.0
Be   9.0    0.0 0.0
Be  13.5    0.0 0.0
Be  18.0    0.0 0.0
Be  22.5    0.0 0.0
Be  27.0    0.0 0.0
Be  31.5    0.0 0.0
Be  36.0    0.0 0.0
Be  40.5    0.0 0.0
Be  45.0    0.0 0.0
Be  49.5    0.0 0.0
Be  54.0    0.0 0.0
Be  58.5    0.0 0.0
Be  63.0    0.0 0.0
Be  67.5    0.0 0.0
Be  72.0    0.0 0.0
Be  76.5    0.0 0.0
Be  81.0    0.0 0.0
Be  85.5    0.0 0.0
Be  90.0    0.0 0.0
Be  94.5    0.0 0.0
Be  99.0    0.0 0.0
Be 103.5    0.0 0.0
units angstrom
}

set basis 6-31g
set freeze_core true
set PRINT_BASIS True
set PUREAM False
set E_CONVERGENCE 1e-10
energy('ccsd(t)')
--------------------------------------------------------------------------

    Molecular point group: d2h

    Geometry (in Angstrom), charge = 0, multiplicity = 1:

       Center              X                  Y                   Z               Mass
    ------------   -----------------  -----------------  -----------------  -----------------
          BE        -51.750000000000    -0.000000000000     0.000000000000     9.012182201000
          BE        -47.250000000000    -0.000000000000     0.000000000000     9.012182201000
          BE        -42.750000000000    -0.000000000000     0.000000000000     9.012182201000
          BE        -38.250000000000    -0.000000000000     0.000000000000     9.012182201000
          BE        -33.750000000000    -0.000000000000     0.000000000000     9.012182201000
          BE        -29.250000000000    -0.000000000000     0.000000000000     9.012182201000
          BE        -24.750000000000    -0.000000000000     0.000000000000     9.012182201000
          BE        -20.250000000000    -0.000000000000     0.000000000000     9.012182201000
          BE        -15.750000000000    -0.000000000000     0.000000000000     9.012182201000
          BE        -11.250000000000    -0.000000000000     0.000000000000     9.012182201000
          BE         -6.750000000000    -0.000000000000     0.000000000000     9.012182201000
          BE         -2.250000000000    -0.000000000000     0.000000000000     9.012182201000
          BE          2.250000000000     0.000000000000     0.000000000000     9.012182201000
          BE          6.750000000000     0.000000000000     0.000000000000     9.012182201000
          BE         11.250000000000     0.000000000000     0.000000000000     9.012182201000
          BE         15.750000000000     0.000000000000     0.000000000000     9.012182201000
          BE         20.250000000000     0.000000000000     0.000000000000     9.012182201000
          BE         24.750000000000     0.000000000000     0.000000000000     9.012182201000
          BE         29.250000000000     0.000000000000     0.000000000000     9.012182201000
          BE         33.750000000000     0.000000000000     0.000000000000     9.012182201000
          BE         38.250000000000     0.000000000000     0.000000000000     9.012182201000
          BE         42.750000000000     0.000000000000     0.000000000000     9.012182201000
          BE         47.250000000000     0.000000000000     0.000000000000     9.012182201000
          BE         51.750000000000     0.000000000000     0.000000000000     9.012182201000

  Charge       = 0
  Multiplicity = 1
  Basis Set: 6-31G

    Orbital Energies (a.u.)
    -----------------------

    Doubly Occupied:

       1Ag    -4.708045     1B3u   -4.708045     2B3u   -4.707928
       2Ag    -4.707928     3Ag    -4.707887     3B3u   -4.707887
       4B3u   -4.707871     4Ag    -4.707871     5B3u   -4.707863
       5Ag    -4.707863     6B3u   -4.707859     6Ag    -4.707859
       7B3u   -4.707857     7Ag    -4.707857     8B3u   -4.707856
       8Ag    -4.707856     9B3u   -4.707856     9Ag    -4.707855
      10B3u   -4.707854    10Ag    -4.707853    11B3u   -4.707852
      11Ag    -4.707851    12B3u   -4.707374    12Ag    -4.707374
      13Ag    -0.317457    13B3u   -0.317146    14Ag    -0.316617
      14B3u   -0.315873    15Ag    -0.314919    15B3u   -0.313763
      16Ag    -0.312414    16B3u   -0.310885    17Ag    -0.309191
      17B3u   -0.307348    18Ag    -0.305379    18B3u   -0.303307
      19Ag    -0.301160    19B3u   -0.298967    20Ag    -0.296763
      20B3u   -0.294584    21Ag    -0.292471    21B3u   -0.290465
      22Ag    -0.288607    22B3u   -0.286941    23Ag    -0.285506
      23B3u   -0.284340    24Ag    -0.283475    24B3u   -0.282938

  @RHF Final Energy:  -349.60841074314249

   => Energetics <=

    Nuclear Repulsion Energy =            125.3524309048476795
    One-Electron Energy =                -709.4842412123726945
    Two-Electron Energy =                 234.5233995643826290
    DFT Exchange-Correlation Energy =       0.0000000000000000
    Empirical Dispersion Energy =           0.0000000000000000
    PCM Polarization Energy =               0.0000000000000000
    EFP Energy =                            0.0000000000000000
    Total Energy =                       -349.6084107431423718
      * MP2 total energy                      = -350.177541226372796
      * CCSD total energy                     = -350.711126752608664
      * CCSD(T) total energy                  = -350.712646534705868
*** Psi4 exiting successfully. Buy a developer a beer!
