                              Psi4 1.0.0 Driver

  ==> Input File <==

--------------------------------------------------------------------------
memory 24 Gb
molecule beN {
0 1
Be   0.0    0.0 0.0
Be   4.5    0.0 0.0
Be   9.0    0.0 0.0
Be  13.5    0.0 0.0
Be  18.0    0.0 0.0
Be  22.5    0.0 0.0
Be  27.0    0.0 0.0
Be  31.5    0.0 0.0
Be  36.0    0.0 0.0
Be  40.5    0.0 0.0
Be  45.0    0.0 0.0
Be  49.5    0.0 0.0
Be  54.0    0.0 0.0
Be  58.5    0.0 0.0
Be  63.0    0.0 0.0
Be  67.5    0.0 0.0
Be  72.0    0.0 0.0
Be  76.5    0.0 0.0
Be  81.0    0.0 0.0
Be  85.5    0.0 0.0
Be  90.0    0.0 0.0
Be  94.5    0.0 0.0
Be  99.0    0.0 0.0
Be 103.5    0.0 0.0
Be 108.0    0.0 0.0
Be 112.5    0.0 0.0
Be 117.0    0.0 0.0
Be 121.5    0.0 0.0
units angstrom
}

set basis 6-31g
set freeze_core true
set PRINT_BASIS True
set PUREAM False
set E_CONVERGENCE 1e-10
energy('ccsd(t)')
--------------------------------------------------------------------------

    Molecular point group: d2h

    Geometry (in Angstrom), charge = 0, multiplicity = 1:

       Center              X                  Y                   Z               Mass
    ------------   -----------------  -----------------  -----------------  -----------------
          BE        -60.750000000000    -0.000000000000     0.000000000000     9.012182201000
          BE        -56.250000000000    -0.000000000000     0.000000000000     9.012182201000
          BE        -51.750000000000    -0.000000000000     0.000000000000     9.012182201000
          BE        -47.250000000000    -0.000000000000     0.000000000000     9.012182201000
          BE        -42.750000000000    -0.000000000000     0.000000000000     9.012182201000
          BE        -38.250000000000    -0.000000000000     0.000000000000     9.012182201000
          BE        -33.750000000000    -0.000000000000     0.000000000000     9.012182201000
          BE        -29.250000000000    -0.000000000000     0.000000000000     9.012182201000
          BE        -24.750000000000    -0.000000000000     0.000000000000     9.012182201000
          BE        -20.250000000000    -0.000000000000     0.000000000000     9.012182201000
          BE        -15.750000000000    -0.000000000000     0.000000000000     9.012182201000
          BE        -11.250000000000    -0.000000000000     0.000000000000     9.012182201000
          BE         -6.750000000000    -0.000000000000     0.000000000000     9.012182201000
          BE         -2.250000000000    -0.000000000000     0.000000000000     9.012182201000
          BE          2.250000000000     0.000000000000     0.000000000000     9.012182201000
          BE          6.750000000000     0.000000000000     0.000000000000     9.012182201000
          BE         11.250000000000     0.000000000000     0.000000000000     9.012182201000
          BE         15.750000000000     0.000000000000     0.000000000000     9.012182201000
          BE         20.250000000000     0.000000000000     0.000000000000     9.012182201000
          BE         24.750000000000     0.000000000000     0.000000000000     9.012182201000
          BE         29.250000000000     0.000000000000     0.000000000000     9.012182201000
          BE         33.750000000000     0.000000000000     0.000000000000     9.012182201000
          BE         38.250000000000     0.000000000000     0.000000000000     9.012182201000
          BE         42.750000000000     0.000000000000     0.000000000000     9.012182201000
          BE         47.250000000000     0.000000000000     0.000000000000     9.012182201000
          BE         51.750000000000     0.000000000000     0.000000000000     9.012182201000
          BE         56.250000000000     0.000000000000     0.000000000000     9.012182201000
          BE         60.750000000000     0.000000000000     0.000000000000     9.012182201000

  Charge       = 0
  Multiplicity = 1
  Basis Set: 6-31G

    Orbital Energies (a.u.)
    -----------------------

    Doubly Occupied:

       1Ag    -4.708044     1B3u   -4.708044     2Ag    -4.707928
       2B3u   -4.707928     3Ag    -4.707887     3B3u   -4.707887
       4Ag    -4.707870     4B3u   -4.707870     5Ag    -4.707863
       5B3u   -4.707863     6B3u   -4.707859     6Ag    -4.707859
       7B3u   -4.707857     7Ag    -4.707857     8B3u   -4.707856
       8Ag    -4.707856     9B3u   -4.707855     9Ag    -4.707855
      10B3u   -4.707855    10Ag    -4.707854    11B3u   -4.707854
      11Ag    -4.707853    12B3u   -4.707852    12Ag    -4.707852
      13B3u   -4.707851    13Ag    -4.707850    14Ag    -4.707374
      14B3u   -4.707374    15Ag    -0.317482    15B3u   -0.317251
      16Ag    -0.316859    16B3u   -0.316307    17Ag    -0.315596
      17B3u   -0.314732    18Ag    -0.313719    18B3u   -0.312563
      19Ag    -0.311272    19B3u   -0.309856    20Ag    -0.308324
      20B3u   -0.306689    21Ag    -0.304966    21B3u   -0.303170
      22Ag    -0.301318    22B3u   -0.299431    23Ag    -0.297530
      23B3u   -0.295637    24Ag    -0.293779    24B3u   -0.291980
      25Ag    -0.290267    25B3u   -0.288668    26Ag    -0.287211
      26B3u   -0.285921    27Ag    -0.284824    27B3u   -0.283941
      28Ag    -0.283291    28B3u   -0.282890

  @RHF Final Energy:  -407.87652080853093

   => Energetics <=

    Nuclear Repulsion Energy =            154.2107789690311108
    One-Electron Energy =                -843.6644292965347631
    Two-Electron Energy =                 281.5771295189726970
    DFT Exchange-Correlation Energy =       0.0000000000000000
    Empirical Dispersion Energy =           0.0000000000000000
    PCM Polarization Energy =               0.0000000000000000
    EFP Energy =                            0.0000000000000000
    Total Energy =                       -407.8765208085309268
      * MP2 total energy                      = -408.540591063838804
      * CCSD total energy                     = -409.163022190714912
      * CCSD(T) total energy                  = -409.164807272463463
*** Psi4 exiting successfully. Buy a developer a beer!
