                              Psi4 1.0.0 Driver

  ==> Input File <==

--------------------------------------------------------------------------
memory 24 Gb
molecule beN {
0 1
Be   0.0    0.0 0.0
Be   4.5    0.0 0.0
Be   9.0    0.0 0.0
Be  13.5    0.0 0.0
Be  18.0    0.0 0.0
Be  22.5    0.0 0.0
Be  27.0    0.0 0.0
Be  31.5    0.0 0.0
Be  36.0    0.0 0.0
Be  40.5    0.0 0.0
Be  45.0    0.0 0.0
Be  49.5    0.0 0.0
Be  54.0    0.0 0.0
Be  58.5    0.0 0.0
Be  63.0    0.0 0.0
Be  67.5    0.0 0.0
Be  72.0    0.0 0.0
Be  76.5    0.0 0.0
Be  81.0    0.0 0.0
Be  85.5    0.0 0.0
Be  90.0    0.0 0.0
Be  94.5    0.0 0.0
units angstrom
}

set basis 6-31g
set freeze_core true
set PRINT_BASIS True
set PUREAM False
set E_CONVERGENCE 1e-10
energy('ccsd(t)')
--------------------------------------------------------------------------

    Molecular point group: d2h

    Geometry (in Angstrom), charge = 0, multiplicity = 1:

       Center              X                  Y                   Z               Mass
    ------------   -----------------  -----------------  -----------------  -----------------
          BE        -47.250000000000    -0.000000000000     0.000000000000     9.012182201000
          BE        -42.750000000000    -0.000000000000     0.000000000000     9.012182201000
          BE        -38.250000000000    -0.000000000000     0.000000000000     9.012182201000
          BE        -33.750000000000    -0.000000000000     0.000000000000     9.012182201000
          BE        -29.250000000000    -0.000000000000     0.000000000000     9.012182201000
          BE        -24.750000000000    -0.000000000000     0.000000000000     9.012182201000
          BE        -20.250000000000    -0.000000000000     0.000000000000     9.012182201000
          BE        -15.750000000000    -0.000000000000     0.000000000000     9.012182201000
          BE        -11.250000000000    -0.000000000000     0.000000000000     9.012182201000
          BE         -6.750000000000    -0.000000000000     0.000000000000     9.012182201000
          BE         -2.250000000000    -0.000000000000     0.000000000000     9.012182201000
          BE          2.250000000000     0.000000000000     0.000000000000     9.012182201000
          BE          6.750000000000     0.000000000000     0.000000000000     9.012182201000
          BE         11.250000000000     0.000000000000     0.000000000000     9.012182201000
          BE         15.750000000000     0.000000000000     0.000000000000     9.012182201000
          BE         20.250000000000     0.000000000000     0.000000000000     9.012182201000
          BE         24.750000000000     0.000000000000     0.000000000000     9.012182201000
          BE         29.250000000000     0.000000000000     0.000000000000     9.012182201000
          BE         33.750000000000     0.000000000000     0.000000000000     9.012182201000
          BE         38.250000000000     0.000000000000     0.000000000000     9.012182201000
          BE         42.750000000000     0.000000000000     0.000000000000     9.012182201000
          BE         47.250000000000     0.000000000000     0.000000000000     9.012182201000

  Charge       = 0
  Multiplicity = 1
  Basis Set: 6-31G

    Orbital Energies (a.u.)
    -----------------------

    Doubly Occupied:

       1B3u   -4.708045     1Ag    -4.708045     2B3u   -4.707928
       2Ag    -4.707928     3Ag    -4.707887     3B3u   -4.707887
       4Ag    -4.707871     4B3u   -4.707871     5B3u   -4.707863
       5Ag    -4.707863     6B3u   -4.707860     6Ag    -4.707860
       7B3u   -4.707858     7Ag    -4.707858     8B3u   -4.707857
       8Ag    -4.707856     9B3u   -4.707856     9Ag    -4.707855
      10B3u   -4.707854    10Ag    -4.707852    11B3u   -4.707374
      11Ag    -4.707374    12Ag    -0.317440    12B3u   -0.317071
      13Ag    -0.316446    13B3u   -0.315567    14Ag    -0.314442
      14B3u   -0.313083    15Ag    -0.311503    15B3u   -0.309720
      16Ag    -0.307757    16B3u   -0.305638    17Ag    -0.303394
      17B3u   -0.301059    18Ag    -0.298674    18B3u   -0.296281
      19Ag    -0.293929    19B3u   -0.291669    20Ag    -0.289554
      20B3u   -0.287639    21Ag    -0.285978    21B3u   -0.284618
      22Ag    -0.283604    22B3u   -0.282972

  @RHF Final Energy:  -320.47435571043712

   => Energetics <=

    Nuclear Repulsion Energy =            111.3819554876913145
    One-Electron Energy =                -643.3115461061383940
    Two-Electron Energy =                 211.4552349080099134
    DFT Exchange-Correlation Energy =       0.0000000000000000
    Empirical Dispersion Energy =           0.0000000000000000
    PCM Polarization Energy =               0.0000000000000000
    EFP Energy =                            0.0000000000000000
    Total Energy =                       -320.4743557104371234
      * MP2 total energy                      = -320.996016307648290
      * CCSD total energy                     = -321.485179033526038
      * CCSD(T) total energy                  = -321.486566165798934
*** Psi4 exiting successfully. Buy a developer a beer!
