                              Psi4 1.0.0 Driver

  ==> Input File <==

--------------------------------------------------------------------------

memory 10 Gb
molecule be2 {
0 1
Be  0.0  0.0  0.0
Be  0.0  0.0  2.100
units angstrom
}

set basis 6-31g
set freeze_core true
set PRINT_BASIS True
set PUREAM False
set E_CONVERGENCE 1e-14
energy('fci')
--------------------------------------------------------------------------

    Molecular point group: d2h

    Geometry (in Angstrom), charge = 0, multiplicity = 1:

       Center              X                  Y                   Z               Mass
    ------------   -----------------  -----------------  -----------------  -----------------
          BE          0.000000000000     0.000000000000    -1.050000000000     9.012182201000
          BE          0.000000000000     0.000000000000     1.050000000000     9.012182201000

  Charge       = 0
  Multiplicity = 1
  Basis Set: 6-31G

    Orbital Energies (a.u.)
    -----------------------

    Doubly Occupied:

       1Ag    -4.705131     1B1u   -4.704908     2Ag    -0.418945
       2B1u   -0.216663

  @RHF Final Energy:   -29.10447436827388

   => Energetics <=

    Nuclear Repulsion Energy =              4.0318263511619055
    One-Electron Energy =                 -46.1813059492441980
    Two-Electron Energy =                  13.0450052298084103
    DFT Exchange-Correlation Energy =       0.0000000000000000
    Empirical Dispersion Energy =           0.0000000000000000
    PCM Polarization Energy =               0.0000000000000000
    EFP Energy =                            0.0000000000000000
    Total Energy =                        -29.1044743682738840
*** Psi4 exiting successfully. Buy a developer a beer!
