                              Psi4 1.0.0 Driver

  ==> Input File <==

--------------------------------------------------------------------------

memory 10 Gb
molecule be2 {
0 1
Be  0.0  0.0  0.0
Be  0.0  0.0  1.300
units angstrom
}

set basis 6-31g
set freeze_core true
set PRINT_BASIS True
set PUREAM False
set E_CONVERGENCE 1e-14
energy('fci')
--------------------------------------------------------------------------

    Molecular point group: d2h

    Geometry (in Angstrom), charge = 0, multiplicity = 1:

       Center              X                  Y                   Z               Mass
    ------------   -----------------  -----------------  -----------------  -----------------
          BE          0.000000000000     0.000000000000    -0.650000000000     9.012182201000
          BE          0.000000000000     0.000000000000     0.650000000000     9.012182201000

  Charge       = 0
  Multiplicity = 1
  Basis Set: 6-31G

    Orbital Energies (a.u.)
    -----------------------

    Doubly Occupied:

       1Ag    -4.772538     1B1u   -4.750101     2Ag    -0.487733
       2B1u   -0.198040

  @RHF Final Energy:   -28.81523871302263

   => Energetics <=

    Nuclear Repulsion Energy =              6.5129502595692328
    One-Electron Energy =                 -50.2395553320272015
    Two-Electron Energy =                  14.9113663594353341
    DFT Exchange-Correlation Energy =       0.0000000000000000
    Empirical Dispersion Energy =           0.0000000000000000
    PCM Polarization Energy =               0.0000000000000000
    EFP Energy =                            0.0000000000000000
    Total Energy =                        -28.8152387130226373
*** Psi4 exiting successfully. Buy a developer a beer!
