                              Psi4 1.0.0 Driver

  ==> Input File <==

--------------------------------------------------------------------------

memory 10 Gb
molecule be2 {
0 1
Be  0.0  0.0  0.0
Be  0.0  0.0  1.500
units angstrom
}

set basis 6-31g
set freeze_core true
set PRINT_BASIS True
set PUREAM False
set E_CONVERGENCE 1e-14
energy('fci')
--------------------------------------------------------------------------

    Molecular point group: d2h

    Geometry (in Angstrom), charge = 0, multiplicity = 1:

       Center              X                  Y                   Z               Mass
    ------------   -----------------  -----------------  -----------------  -----------------
          BE          0.000000000000     0.000000000000    -0.750000000000     9.012182201000
          BE          0.000000000000     0.000000000000     0.750000000000     9.012182201000

  Charge       = 0
  Multiplicity = 1
  Basis Set: 6-31G

    Orbital Energies (a.u.)
    -----------------------

    Doubly Occupied:

       1Ag    -4.723546     1B1u   -4.716478     2Ag    -0.476571
       2B1u   -0.197045

  @RHF Final Energy:   -28.96048311055884

   => Energetics <=

    Nuclear Repulsion Energy =              5.6445568916266700
    One-Electron Energy =                 -48.9828007494931654
    Two-Electron Energy =                  14.3777607473076579
    DFT Exchange-Correlation Energy =       0.0000000000000000
    Empirical Dispersion Energy =           0.0000000000000000
    PCM Polarization Energy =               0.0000000000000000
    EFP Energy =                            0.0000000000000000
    Total Energy =                        -28.9604831105588367
*** Psi4 exiting successfully. Buy a developer a beer!
