                              Psi4 1.0.0 Driver

  ==> Input File <==

--------------------------------------------------------------------------

memory 10 Gb
molecule be2 {
0 1
Be  0.0  0.0  0.0
Be  0.0  0.0  3.400
units angstrom
}

set basis 6-31g
set freeze_core true
set PRINT_BASIS True
set PUREAM False
set E_CONVERGENCE 1e-14
energy('fci')
--------------------------------------------------------------------------

    Molecular point group: d2h

    Geometry (in Angstrom), charge = 0, multiplicity = 1:

       Center              X                  Y                   Z               Mass
    ------------   -----------------  -----------------  -----------------  -----------------
          BE          0.000000000000     0.000000000000    -1.700000000000     9.012182201000
          BE          0.000000000000     0.000000000000     1.700000000000     9.012182201000

  Charge       = 0
  Multiplicity = 1
  Basis Set: 6-31G

    Orbital Energies (a.u.)
    -----------------------

    Doubly Occupied:

       1B1u   -4.708276     1Ag    -4.708274     2Ag    -0.332969
       2B1u   -0.272595

  @RHF Final Energy:   -29.13212665642612

   => Energetics <=

    Nuclear Repulsion Energy =              2.4902456874823518
    One-Electron Energy =                 -43.2005159550888038
    Two-Electron Energy =                  11.5781436111803320
    DFT Exchange-Correlation Energy =       0.0000000000000000
    Empirical Dispersion Energy =           0.0000000000000000
    PCM Polarization Energy =               0.0000000000000000
    EFP Energy =                            0.0000000000000000
    Total Energy =                        -29.1321266564261236
*** Psi4 exiting successfully. Buy a developer a beer!
