                              Psi4 1.0.0 Driver

  ==> Input File <==

--------------------------------------------------------------------------
memory 24 Gb
molecule be2 {
0 1
Be   0.0    0.0 0.0
Be   4.0    0.0 0.0
units angstrom
}

set basis 6-31g
set freeze_core true
set PRINT_BASIS True
set PUREAM False
set E_CONVERGENCE 1e-14
energy('ccsd(t)')
--------------------------------------------------------------------------

    Molecular point group: d2h

    Geometry (in Angstrom), charge = 0, multiplicity = 1:

       Center              X                  Y                   Z               Mass
    ------------   -----------------  -----------------  -----------------  -----------------
          BE         -2.000000000000    -0.000000000000     0.000000000000     9.012182201000
          BE          2.000000000000     0.000000000000     0.000000000000     9.012182201000

  Charge       = 0
  Multiplicity = 1
  Basis Set: 6-31G

    Orbital Energies (a.u.)
    -----------------------

    Doubly Occupied:

       1B3u   -4.707806     1Ag    -4.707803     2Ag    -0.317236
       2B3u   -0.286152

  @RHF Final Energy:   -29.13354119216403

   => Energetics <=

    Nuclear Repulsion Energy =              2.1167088343599998
    One-Electron Energy =                 -42.4625064545059843
    Two-Electron Energy =                  11.2122564279819503
    DFT Exchange-Correlation Energy =       0.0000000000000000
    Empirical Dispersion Energy =           0.0000000000000000
    PCM Polarization Energy =               0.0000000000000000
    EFP Energy =                            0.0000000000000000
    Total Energy =                        -29.1335411921640386
      * MP2 total energy                      =  -29.180811821168412
      * CCSD total energy                     =  -29.225332903176852
      * CCSD(T) total energy                  =  -29.225475107003199
*** Psi4 exiting successfully. Buy a developer a beer!
