                              Psi4 1.0.0 Driver

  ==> Input File <==

--------------------------------------------------------------------------
memory 24 Gb
molecule be2 {
0 1
Be   0.0    0.0 0.0
Be   3.9    0.0 0.0
units angstrom
}

set basis 6-31g
set freeze_core true
set PRINT_BASIS True
set PUREAM False
set E_CONVERGENCE 1e-14
energy('ccsd(t)')
--------------------------------------------------------------------------

    Molecular point group: d2h

    Geometry (in Angstrom), charge = 0, multiplicity = 1:

       Center              X                  Y                   Z               Mass
    ------------   -----------------  -----------------  -----------------  -----------------
          BE         -1.950000000000    -0.000000000000     0.000000000000     9.012182201000
          BE          1.950000000000     0.000000000000     0.000000000000     9.012182201000

  Charge       = 0
  Multiplicity = 1
  Basis Set: 6-31G

    Orbital Energies (a.u.)
    -----------------------

    Doubly Occupied:

       1B3u   -4.707860     1Ag    -4.707858     2Ag    -0.319205
       2B3u   -0.284371

  @RHF Final Energy:   -29.13341800917741

   => Energetics <=

    Nuclear Repulsion Energy =              2.1709834198564097
    One-Electron Energy =                 -42.5702153245483288
    Two-Electron Energy =                  11.2658138955145155
    DFT Exchange-Correlation Energy =       0.0000000000000000
    Empirical Dispersion Energy =           0.0000000000000000
    PCM Polarization Energy =               0.0000000000000000
    EFP Energy =                            0.0000000000000000
    Total Energy =                        -29.1334180091774009
      * MP2 total energy                      =  -29.180768024661173
      * CCSD total energy                     =  -29.225171186615817
      * CCSD(T) total energy                  =  -29.225338825621449
*** Psi4 exiting successfully. Buy a developer a beer!
