                              Psi4 1.0.0 Driver

  ==> Input File <==

--------------------------------------------------------------------------
memory 24 Gb
molecule be2 {
0 1
Be   0.0    0.0 0.0
Be   3.8    0.0 0.0
units angstrom
}

set basis 6-31g
set freeze_core true
set PRINT_BASIS True
set PUREAM False
set E_CONVERGENCE 1e-14
energy('ccsd(t)')
--------------------------------------------------------------------------

    Molecular point group: d2h

    Geometry (in Angstrom), charge = 0, multiplicity = 1:

       Center              X                  Y                   Z               Mass
    ------------   -----------------  -----------------  -----------------  -----------------
          BE         -1.900000000000    -0.000000000000     0.000000000000     9.012182201000
          BE          1.900000000000     0.000000000000     0.000000000000     9.012182201000

  Charge       = 0
  Multiplicity = 1
  Basis Set: 6-31G

    Orbital Energies (a.u.)
    -----------------------

    Doubly Occupied:

       1B3u   -4.707922     1Ag    -4.707920     2Ag    -0.321402
       2B3u   -0.282415

  @RHF Final Energy:   -29.13325975686391

   => Energetics <=

    Nuclear Repulsion Energy =              2.2281145624842118
    One-Electron Energy =                 -42.6834328417685214
    Two-Electron Energy =                  11.3220585224204093
    DFT Exchange-Correlation Energy =       0.0000000000000000
    Empirical Dispersion Energy =           0.0000000000000000
    PCM Polarization Energy =               0.0000000000000000
    EFP Energy =                            0.0000000000000000
    Total Energy =                        -29.1332597568639038
      * MP2 total energy                      =  -29.180696829152250
      * CCSD total energy                     =  -29.224967046654065
      * CCSD(T) total energy                  =  -29.225164257102985
*** Psi4 exiting successfully. Buy a developer a beer!
