                              Psi4 1.0.0 Driver

  ==> Input File <==

--------------------------------------------------------------------------
memory 24 Gb
molecule be2 {
0 1
Be   0.0    0.0 0.0
Be   5.0    0.0 0.0
units angstrom
}

set basis 6-31g
set freeze_core true
set PRINT_BASIS True
set PUREAM False
set E_CONVERGENCE 1e-14
energy('ccsd(t)')
--------------------------------------------------------------------------

    Molecular point group: d2h

    Geometry (in Angstrom), charge = 0, multiplicity = 1:

       Center              X                  Y                   Z               Mass
    ------------   -----------------  -----------------  -----------------  -----------------
          BE         -2.500000000000    -0.000000000000     0.000000000000     9.012182201000
          BE          2.500000000000     0.000000000000     0.000000000000     9.012182201000

  Charge       = 0
  Multiplicity = 1
  Basis Set: 6-31G

    Orbital Energies (a.u.)
    -----------------------

    Doubly Occupied:

       1B3u   -4.707357     1Ag    -4.707354     2Ag    -0.305972
       2B3u   -0.296802

  @RHF Final Energy:   -29.13377284769914

   => Energetics <=

    Nuclear Repulsion Energy =              1.6933670674880010
    One-Electron Energy =                 -41.6193107364386989
    Two-Electron Energy =                  10.7921708212515544
    DFT Exchange-Correlation Energy =       0.0000000000000000
    Empirical Dispersion Energy =           0.0000000000000000
    PCM Polarization Energy =               0.0000000000000000
    EFP Energy =                            0.0000000000000000
    Total Energy =                        -29.1337728476991487
      * MP2 total energy                      =  -29.180552730567012
      * CCSD total energy                     =  -29.225711580071700
      * CCSD(T) total energy                  =  -29.225737574675382
*** Psi4 exiting successfully. Buy a developer a beer!
