                              Psi4 1.0.0 Driver

  ==> Input File <==

--------------------------------------------------------------------------
memory 24 Gb
molecule be2 {
0 1
Be   0.0    0.0 0.0
Be   4.7    0.0 0.0
units angstrom
}

set basis 6-31g
set freeze_core true
set PRINT_BASIS True
set PUREAM False
set E_CONVERGENCE 1e-14
energy('ccsd(t)')
--------------------------------------------------------------------------

    Molecular point group: d2h

    Geometry (in Angstrom), charge = 0, multiplicity = 1:

       Center              X                  Y                   Z               Mass
    ------------   -----------------  -----------------  -----------------  -----------------
          BE         -2.350000000000    -0.000000000000     0.000000000000     9.012182201000
          BE          2.350000000000     0.000000000000     0.000000000000     9.012182201000

  Charge       = 0
  Multiplicity = 1
  Basis Set: 6-31G

    Orbital Energies (a.u.)
    -----------------------

    Doubly Occupied:

       1B3u   -4.707496     1Ag    -4.707492     2Ag    -0.308150
       2B3u   -0.294696

  @RHF Final Energy:   -29.13381075657618

   => Energetics <=

    Nuclear Repulsion Energy =              1.8014543271148931
    One-Electron Energy =                 -41.8348619346477335
    Two-Electron Energy =                  10.8995968509566552
    DFT Exchange-Correlation Energy =       0.0000000000000000
    Empirical Dispersion Energy =           0.0000000000000000
    PCM Polarization Energy =               0.0000000000000000
    EFP Energy =                            0.0000000000000000
    Total Energy =                        -29.1338107565761817
      * MP2 total energy                      =  -29.180689263700426
      * CCSD total energy                     =  -29.225729254616130
      * CCSD(T) total energy                  =  -29.225772649887688
*** Psi4 exiting successfully. Buy a developer a beer!
