                              Psi4 1.0.0 Driver

  ==> Input File <==

--------------------------------------------------------------------------
memory 24 Gb
molecule be2 {
0 1
Be   0.0    0.0 0.0
Be   6.6    0.0 0.0
units angstrom
}

set basis 6-31g
set freeze_core true
set PRINT_BASIS True
set PUREAM False
set E_CONVERGENCE 1e-14
energy('ccsd(t)')
--------------------------------------------------------------------------

    Molecular point group: d2h

    Geometry (in Angstrom), charge = 0, multiplicity = 1:

       Center              X                  Y                   Z               Mass
    ------------   -----------------  -----------------  -----------------  -----------------
          BE         -3.300000000000    -0.000000000000     0.000000000000     9.012182201000
          BE          3.300000000000     0.000000000000     0.000000000000     9.012182201000

  Charge       = 0
  Multiplicity = 1
  Basis Set: 6-31G

    Orbital Energies (a.u.)
    -----------------------

    Doubly Occupied:

       1B3u   -4.706916     1Ag    -4.706916     2Ag    -0.301730
       2B3u   -0.300873

  @RHF Final Energy:   -29.13354420282534

   => Energetics <=

    Nuclear Repulsion Energy =              1.2828538390060615
    One-Electron Energy =                 -40.7999257630016245
    Two-Electron Energy =                  10.3835277211702195
    DFT Exchange-Correlation Energy =       0.0000000000000000
    Empirical Dispersion Energy =           0.0000000000000000
    PCM Polarization Energy =               0.0000000000000000
    EFP Energy =                            0.0000000000000000
    Total Energy =                        -29.1335442028253482
      * MP2 total energy                      =  -29.180129815191844
      * CCSD total energy                     =  -29.225513378927353
      * CCSD(T) total energy                  =  -29.225515940568393
*** Psi4 exiting successfully. Buy a developer a beer!
