                              Psi4 1.0.0 Driver

  ==> Input File <==

--------------------------------------------------------------------------
memory 24 Gb
molecule be2 {
0 1
Be   0.0    0.0 0.0
Be   8.1    0.0 0.0
units angstrom
}

set basis 6-31g
set freeze_core true
set PRINT_BASIS True
set PUREAM False
set E_CONVERGENCE 1e-14
energy('ccsd(t)')
--------------------------------------------------------------------------

    Molecular point group: d2h

    Geometry (in Angstrom), charge = 0, multiplicity = 1:

       Center              X                  Y                   Z               Mass
    ------------   -----------------  -----------------  -----------------  -----------------
          BE         -4.050000000000    -0.000000000000     0.000000000000     9.012182201000
          BE          4.050000000000     0.000000000000     0.000000000000     9.012182201000

  Charge       = 0
  Multiplicity = 1
  Basis Set: 6-31G

    Orbital Energies (a.u.)
    -----------------------

    Doubly Occupied:

       1B3u   -4.706891     1Ag    -4.706891     2Ag    -0.301321
       2B3u   -0.301270

  @RHF Final Energy:   -29.13352820937001

   => Energetics <=

    Nuclear Repulsion Energy =              1.0452883132641975
    One-Electron Energy =                 -40.3248884599669424
    Two-Electron Energy =                  10.1460719373327386
    DFT Exchange-Correlation Energy =       0.0000000000000000
    Empirical Dispersion Energy =           0.0000000000000000
    PCM Polarization Energy =               0.0000000000000000
    EFP Energy =                            0.0000000000000000
    Total Energy =                        -29.1335282093700094
      * MP2 total energy                      =  -29.180078017895053
      * CCSD total energy                     =  -29.225484184615937
      * CCSD(T) total energy                  =  -29.225484827161473
*** Psi4 exiting successfully. Buy a developer a beer!
