                              Psi4 1.0.0 Driver

  ==> Input File <==

--------------------------------------------------------------------------
memory 24 Gb
molecule be2 {
0 1
Be   0.0    0.0 0.0
Be   7.9    0.0 0.0
units angstrom
}

set basis 6-31g
set freeze_core true
set PRINT_BASIS True
set PUREAM False
set E_CONVERGENCE 1e-14
energy('ccsd(t)')
--------------------------------------------------------------------------

    Molecular point group: d2h

    Geometry (in Angstrom), charge = 0, multiplicity = 1:

       Center              X                  Y                   Z               Mass
    ------------   -----------------  -----------------  -----------------  -----------------
          BE         -3.950000000000    -0.000000000000     0.000000000000     9.012182201000
          BE          3.950000000000     0.000000000000     0.000000000000     9.012182201000

  Charge       = 0
  Multiplicity = 1
  Basis Set: 6-31G

    Orbital Energies (a.u.)
    -----------------------

    Doubly Occupied:

       1B3u   -4.706891     1Ag    -4.706891     2Ag    -0.301334
       2B3u   -0.301257

  @RHF Final Energy:   -29.13352836440412

   => Energetics <=

    Nuclear Repulsion Energy =              1.0717513085367092
    One-Electron Energy =                 -40.3778136282062547
    Two-Electron Energy =                  10.1725339552654273
    DFT Exchange-Correlation Energy =       0.0000000000000000
    Empirical Dispersion Energy =           0.0000000000000000
    PCM Polarization Energy =               0.0000000000000000
    EFP Energy =                            0.0000000000000000
    Total Energy =                        -29.1335283644041141
      * MP2 total energy                      =  -29.180080657278211
      * CCSD total energy                     =  -29.225485577126292
      * CCSD(T) total energy                  =  -29.225486331706865
*** Psi4 exiting successfully. Buy a developer a beer!
