                              Psi4 1.0.0 Driver

  ==> Input File <==

--------------------------------------------------------------------------
memory 24 Gb
molecule be2 {
0 1
Be   0.0    0.0 0.0
Be   5.3    0.0 0.0
units angstrom
}

set basis 6-31g
set freeze_core true
set PRINT_BASIS True
set PUREAM False
set E_CONVERGENCE 1e-14
energy('ccsd(t)')
--------------------------------------------------------------------------

    Molecular point group: d2h

    Geometry (in Angstrom), charge = 0, multiplicity = 1:

       Center              X                  Y                   Z               Mass
    ------------   -----------------  -----------------  -----------------  -----------------
          BE         -2.650000000000    -0.000000000000     0.000000000000     9.012182201000
          BE          2.650000000000     0.000000000000     0.000000000000     9.012182201000

  Charge       = 0
  Multiplicity = 1
  Basis Set: 6-31G

    Orbital Energies (a.u.)
    -----------------------

    Doubly Occupied:

       1B3u   -4.707221     1Ag    -4.707219     2Ag    -0.304433
       2B3u   -0.298288

  @RHF Final Energy:   -29.13371158816944

   => Energetics <=

    Nuclear Repulsion Energy =              1.5975161014037735
    One-Electron Energy =                 -41.4281342231887066
    Two-Electron Energy =                  10.6969065336154898
    DFT Exchange-Correlation Energy =       0.0000000000000000
    Empirical Dispersion Energy =           0.0000000000000000
    PCM Polarization Energy =               0.0000000000000000
    EFP Energy =                            0.0000000000000000
    Total Energy =                        -29.1337115881694402
      * MP2 total energy                      =  -29.180422585615567
      * CCSD total energy                     =  -29.225664948373236
      * CCSD(T) total energy                  =  -29.225680682261800
*** Psi4 exiting successfully. Buy a developer a beer!
