                              Psi4 1.0.0 Driver

  ==> Input File <==

--------------------------------------------------------------------------
memory 24 Gb
molecule be2 {
0 1
Be   0.0    0.0 0.0
Be   6.0    0.0 0.0
units angstrom
}

set basis 6-31g
set freeze_core true
set PRINT_BASIS True
set PUREAM False
set E_CONVERGENCE 1e-14
energy('ccsd(t)')
--------------------------------------------------------------------------

    Molecular point group: d2h

    Geometry (in Angstrom), charge = 0, multiplicity = 1:

       Center              X                  Y                   Z               Mass
    ------------   -----------------  -----------------  -----------------  -----------------
          BE         -3.000000000000    -0.000000000000     0.000000000000     9.012182201000
          BE          3.000000000000     0.000000000000     0.000000000000     9.012182201000

  Charge       = 0
  Multiplicity = 1
  Basis Set: 6-31G

    Orbital Energies (a.u.)
    -----------------------

    Doubly Occupied:

       1B3u   -4.706994     1Ag    -4.706993     2Ag    -0.302437
       2B3u   -0.300199

  @RHF Final Energy:   -29.13358954994643

   => Energetics <=

    Nuclear Repulsion Energy =              1.4111392229066675
    One-Electron Energy =                 -41.0562135085541371
    Two-Electron Energy =                  10.5114847357010390
    DFT Exchange-Correlation Energy =       0.0000000000000000
    Empirical Dispersion Energy =           0.0000000000000000
    PCM Polarization Energy =               0.0000000000000000
    EFP Energy =                            0.0000000000000000
    Total Energy =                        -29.1335895499464286
      * MP2 total energy                      =  -29.180211520441457
      * CCSD total energy                     =  -29.225559918564002
      * CCSD(T) total energy                  =  -29.225565327212284
*** Psi4 exiting successfully. Buy a developer a beer!
