                              Psi4 1.0.0 Driver

  ==> Input File <==

--------------------------------------------------------------------------
memory 24 Gb
molecule be2 {
0 1
Be   0.0    0.0 0.0
Be   4.1    0.0 0.0
units angstrom
}

set basis 6-31g
set freeze_core true
set PRINT_BASIS True
set PUREAM False
set E_CONVERGENCE 1e-14
energy('ccsd(t)')
--------------------------------------------------------------------------

    Molecular point group: d2h

    Geometry (in Angstrom), charge = 0, multiplicity = 1:

       Center              X                  Y                   Z               Mass
    ------------   -----------------  -----------------  -----------------  -----------------
          BE         -2.050000000000    -0.000000000000     0.000000000000     9.012182201000
          BE          2.050000000000     0.000000000000     0.000000000000     9.012182201000

  Charge       = 0
  Multiplicity = 1
  Basis Set: 6-31G

    Orbital Energies (a.u.)
    -----------------------

    Doubly Occupied:

       1B3u   -4.707757     1Ag    -4.707754     2Ag    -0.315470
       2B3u   -0.287771

  @RHF Final Energy:   -29.13363500331086

   => Energetics <=

    Nuclear Repulsion Energy =              2.0650817896195122
    One-Electron Energy =                 -42.3599281186931407
    Two-Electron Energy =                  11.1612113257627605
    DFT Exchange-Correlation Energy =       0.0000000000000000
    Empirical Dispersion Energy =           0.0000000000000000
    PCM Polarization Energy =               0.0000000000000000
    EFP Energy =                            0.0000000000000000
    Total Energy =                        -29.1336350033108680
      * MP2 total energy                      =  -29.180832994532143
      * CCSD total energy                     =  -29.225458346733205
      * CCSD(T) total energy                  =  -29.225578756897804
*** Psi4 exiting successfully. Buy a developer a beer!
