                              Psi4 1.0.0 Driver

  ==> Input File <==

--------------------------------------------------------------------------
memory 24 Gb
molecule be2 {
0 1
Be   0.0    0.0 0.0
Be   4.6    0.0 0.0
units angstrom
}

set basis 6-31g
set freeze_core true
set PRINT_BASIS True
set PUREAM False
set E_CONVERGENCE 1e-14
energy('ccsd(t)')
--------------------------------------------------------------------------

    Molecular point group: d2h

    Geometry (in Angstrom), charge = 0, multiplicity = 1:

       Center              X                  Y                   Z               Mass
    ------------   -----------------  -----------------  -----------------  -----------------
          BE         -2.300000000000    -0.000000000000     0.000000000000     9.012182201000
          BE          2.300000000000     0.000000000000     0.000000000000     9.012182201000

  Charge       = 0
  Multiplicity = 1
  Basis Set: 6-31G

    Orbital Energies (a.u.)
    -----------------------

    Doubly Occupied:

       1B3u   -4.707540     1Ag    -4.707537     2Ag    -0.309057
       2B3u   -0.293823

  @RHF Final Energy:   -29.13381190871123

   => Energetics <=

    Nuclear Repulsion Energy =              1.8406163777043481
    One-Electron Energy =                 -41.9129432078070394
    Two-Electron Energy =                  10.9385149213914623
    DFT Exchange-Correlation Energy =       0.0000000000000000
    Empirical Dispersion Energy =           0.0000000000000000
    PCM Polarization Energy =               0.0000000000000000
    EFP Energy =                            0.0000000000000000
    Total Energy =                        -29.1338119087112268
      * MP2 total energy                      =  -29.180731375887980
      * CCSD total energy                     =  -29.225721478435492
      * CCSD(T) total energy                  =  -29.225772989121481
*** Psi4 exiting successfully. Buy a developer a beer!
