                              Psi4 1.0.0 Driver

  ==> Input File <==

--------------------------------------------------------------------------
memory 24 Gb
molecule be2 {
0 1
Be   0.0    0.0 0.0
Be   4.4    0.0 0.0
units angstrom
}

set basis 6-31g
set freeze_core true
set PRINT_BASIS True
set PUREAM False
set E_CONVERGENCE 1e-14
energy('ccsd(t)')
--------------------------------------------------------------------------

    Molecular point group: d2h

    Geometry (in Angstrom), charge = 0, multiplicity = 1:

       Center              X                  Y                   Z               Mass
    ------------   -----------------  -----------------  -----------------  -----------------
          BE         -2.200000000000    -0.000000000000     0.000000000000     9.012182201000
          BE          2.200000000000     0.000000000000     0.000000000000     9.012182201000

  Charge       = 0
  Multiplicity = 1
  Basis Set: 6-31G

    Orbital Energies (a.u.)
    -----------------------

    Doubly Occupied:

       1B3u   -4.707626     1Ag    -4.707623     2Ag    -0.311205
       2B3u   -0.291768

  @RHF Final Energy:   -29.13378565074686

   => Energetics <=

    Nuclear Repulsion Energy =              1.9242807585090913
    One-Electron Energy =                 -42.0796867969877582
    Two-Electron Energy =                  11.0216203877318115
    DFT Exchange-Correlation Energy =       0.0000000000000000
    Empirical Dispersion Energy =           0.0000000000000000
    PCM Polarization Energy =               0.0000000000000000
    EFP Energy =                            0.0000000000000000
    Total Energy =                        -29.1337856507468551
      * MP2 total energy                      =  -29.180800937849796
      * CCSD total energy                     =  -29.225671356353036
      * CCSD(T) total energy                  =  -29.225743874279686
*** Psi4 exiting successfully. Buy a developer a beer!
