                              Psi4 1.0.0 Driver

  ==> Input File <==

--------------------------------------------------------------------------
memory 24 Gb
molecule be2 {
0 1
Be   0.0    0.0 0.0
Be   6.4    0.0 0.0
units angstrom
}

set basis 6-31g
set freeze_core true
set PRINT_BASIS True
set PUREAM False
set E_CONVERGENCE 1e-14
energy('ccsd(t)')
--------------------------------------------------------------------------

    Molecular point group: d2h

    Geometry (in Angstrom), charge = 0, multiplicity = 1:

       Center              X                  Y                   Z               Mass
    ------------   -----------------  -----------------  -----------------  -----------------
          BE         -3.200000000000    -0.000000000000     0.000000000000     9.012182201000
          BE          3.200000000000     0.000000000000     0.000000000000     9.012182201000

  Charge       = 0
  Multiplicity = 1
  Basis Set: 6-31G

    Orbital Energies (a.u.)
    -----------------------

    Doubly Occupied:

       1B3u   -4.706933     1Ag    -4.706933     2Ag    -0.301901
       2B3u   -0.300709

  @RHF Final Energy:   -29.13355424716958

   => Energetics <=

    Nuclear Repulsion Energy =              1.3229430214750000
    One-Electron Energy =                 -40.8800428047808566
    Two-Electron Energy =                  10.4235455361362703
    DFT Exchange-Correlation Energy =       0.0000000000000000
    Empirical Dispersion Energy =           0.0000000000000000
    PCM Polarization Energy =               0.0000000000000000
    EFP Energy =                            0.0000000000000000
    Total Energy =                        -29.1335542471695881
      * MP2 total energy                      =  -29.180149603294449
      * CCSD total energy                     =  -29.225524818522231
      * CCSD(T) total energy                  =  -29.225528048027666
*** Psi4 exiting successfully. Buy a developer a beer!
