                              Psi4 1.0.0 Driver

  ==> Input File <==

--------------------------------------------------------------------------
memory 24 Gb
molecule be2 {
0 1
Be   0.0    0.0 0.0
Be   8.7    0.0 0.0
units angstrom
}

set basis 6-31g
set freeze_core true
set PRINT_BASIS True
set PUREAM False
set E_CONVERGENCE 1e-14
energy('ccsd(t)')
--------------------------------------------------------------------------

    Molecular point group: d2h

    Geometry (in Angstrom), charge = 0, multiplicity = 1:

       Center              X                  Y                   Z               Mass
    ------------   -----------------  -----------------  -----------------  -----------------
          BE         -4.350000000000    -0.000000000000     0.000000000000     9.012182201000
          BE          4.350000000000     0.000000000000     0.000000000000     9.012182201000

  Charge       = 0
  Multiplicity = 1
  Basis Set: 6-31G

    Orbital Energies (a.u.)
    -----------------------

    Doubly Occupied:

       1B3u   -4.706891     1Ag    -4.706891     2Ag    -0.301302
       2B3u   -0.301289

  @RHF Final Energy:   -29.13352808001363

   => Energetics <=

    Nuclear Repulsion Energy =              0.9731994640735633
    One-Electron Energy =                 -40.1807114279660809
    Two-Electron Energy =                  10.0739838838788920
    DFT Exchange-Correlation Energy =       0.0000000000000000
    Empirical Dispersion Energy =           0.0000000000000000
    PCM Polarization Energy =               0.0000000000000000
    EFP Energy =                            0.0000000000000000
    Total Energy =                        -29.1335280800136225
      * MP2 total energy                      =  -29.180072517248508
      * CCSD total energy                     =  -29.225481322917968
      * CCSD(T) total energy                  =  -29.225481730455957
*** Psi4 exiting successfully. Buy a developer a beer!
