                              Psi4 1.0.0 Driver

  ==> Input File <==

--------------------------------------------------------------------------
memory 24 Gb
molecule be2 {
0 1
Be   0.0    0.0 0.0
Be   6.5    0.0 0.0
units angstrom
}

set basis 6-31g
set freeze_core true
set PRINT_BASIS True
set PUREAM False
set E_CONVERGENCE 1e-14
energy('ccsd(t)')
--------------------------------------------------------------------------

    Molecular point group: d2h

    Geometry (in Angstrom), charge = 0, multiplicity = 1:

       Center              X                  Y                   Z               Mass
    ------------   -----------------  -----------------  -----------------  -----------------
          BE         -3.250000000000    -0.000000000000     0.000000000000     9.012182201000
          BE          3.250000000000     0.000000000000     0.000000000000     9.012182201000

  Charge       = 0
  Multiplicity = 1
  Basis Set: 6-31G

    Orbital Energies (a.u.)
    -----------------------

    Doubly Occupied:

       1B3u   -4.706924     1Ag    -4.706923     2Ag    -0.301809
       2B3u   -0.300797

  @RHF Final Energy:   -29.13354871560539

   => Energetics <=

    Nuclear Repulsion Energy =              1.3025900519138458
    One-Electron Energy =                 -40.8393707711686460
    Two-Electron Energy =                  10.4032320036494177
    DFT Exchange-Correlation Energy =       0.0000000000000000
    Empirical Dispersion Energy =           0.0000000000000000
    PCM Polarization Energy =               0.0000000000000000
    EFP Energy =                            0.0000000000000000
    Total Energy =                        -29.1335487156053823
      * MP2 total energy                      =  -29.180138960697992
      * CCSD total energy                     =  -29.225518671853056
      * CCSD(T) total energy                  =  -29.225521542283612
*** Psi4 exiting successfully. Buy a developer a beer!
