                              Psi4 1.0.0 Driver

  ==> Input File <==

--------------------------------------------------------------------------
memory 24 Gb
molecule be2 {
0 1
Be   0.0    0.0 0.0
Be   8.8    0.0 0.0
units angstrom
}

set basis 6-31g
set freeze_core true
set PRINT_BASIS True
set PUREAM False
set E_CONVERGENCE 1e-14
energy('ccsd(t)')
--------------------------------------------------------------------------

    Molecular point group: d2h

    Geometry (in Angstrom), charge = 0, multiplicity = 1:

       Center              X                  Y                   Z               Mass
    ------------   -----------------  -----------------  -----------------  -----------------
          BE         -4.400000000000    -0.000000000000     0.000000000000     9.012182201000
          BE          4.400000000000     0.000000000000     0.000000000000     9.012182201000

  Charge       = 0
  Multiplicity = 1
  Basis Set: 6-31G

    Orbital Energies (a.u.)
    -----------------------

    Doubly Occupied:

       1B3u   -4.706891     1Ag    -4.706891     2Ag    -0.301301
       2B3u   -0.301290

  @RHF Final Energy:   -29.13352807551340

   => Energetics <=

    Nuclear Repulsion Energy =              0.9621403792545457
    One-Electron Energy =                 -40.1585932806085708
    Two-Electron Energy =                  10.0629248258406250
    DFT Exchange-Correlation Energy =       0.0000000000000000
    Empirical Dispersion Energy =           0.0000000000000000
    PCM Polarization Energy =               0.0000000000000000
    EFP Energy =                            0.0000000000000000
    Total Energy =                        -29.1335280755134036
      * MP2 total energy                      =  -29.180071846751574
      * CCSD total energy                     =  -29.225480976614733
      * CCSD(T) total energy                  =  -29.225481355682614
*** Psi4 exiting successfully. Buy a developer a beer!
