                              Psi4 1.0.0 Driver

  ==> Input File <==

--------------------------------------------------------------------------
memory 24 Gb
molecule be2 {
0 1
Be   0.0    0.0 0.0
Be   7.6    0.0 0.0
units angstrom
}

set basis 6-31g
set freeze_core true
set PRINT_BASIS True
set PUREAM False
set E_CONVERGENCE 1e-14
energy('ccsd(t)')
--------------------------------------------------------------------------

    Molecular point group: d2h

    Geometry (in Angstrom), charge = 0, multiplicity = 1:

       Center              X                  Y                   Z               Mass
    ------------   -----------------  -----------------  -----------------  -----------------
          BE         -3.800000000000    -0.000000000000     0.000000000000     9.012182201000
          BE          3.800000000000     0.000000000000     0.000000000000     9.012182201000

  Charge       = 0
  Multiplicity = 1
  Basis Set: 6-31G

    Orbital Energies (a.u.)
    -----------------------

    Doubly Occupied:

       1B3u   -4.706892     1Ag    -4.706892     2Ag    -0.301366
       2B3u   -0.301226

  @RHF Final Energy:   -29.13352891344025

   => Energetics <=

    Nuclear Repulsion Energy =              1.1140572812421059
    One-Electron Energy =                 -40.4624225847473653
    Two-Electron Energy =                  10.2148363900650097
    DFT Exchange-Correlation Energy =       0.0000000000000000
    Empirical Dispersion Energy =           0.0000000000000000
    PCM Polarization Energy =               0.0000000000000000
    EFP Energy =                            0.0000000000000000
    Total Energy =                        -29.1335289134402515
      * MP2 total energy                      =  -29.180085845513968
      * CCSD total energy                     =  -29.225488360467399
      * CCSD(T) total energy                  =  -29.225489330599679
*** Psi4 exiting successfully. Buy a developer a beer!
