                              Psi4 1.0.0 Driver

  ==> Input File <==

--------------------------------------------------------------------------
memory 24 Gb
molecule be2 {
0 1
Be   0.0    0.0 0.0
Be   5.4    0.0 0.0
units angstrom
}

set basis 6-31g
set freeze_core true
set PRINT_BASIS True
set PUREAM False
set E_CONVERGENCE 1e-14
energy('ccsd(t)')
--------------------------------------------------------------------------

    Molecular point group: d2h

    Geometry (in Angstrom), charge = 0, multiplicity = 1:

       Center              X                  Y                   Z               Mass
    ------------   -----------------  -----------------  -----------------  -----------------
          BE         -2.700000000000    -0.000000000000     0.000000000000     9.012182201000
          BE          2.700000000000     0.000000000000     0.000000000000     9.012182201000

  Charge       = 0
  Multiplicity = 1
  Basis Set: 6-31G

    Orbital Energies (a.u.)
    -----------------------

    Doubly Occupied:

       1B3u   -4.707179     1Ag    -4.707177     2Ag    -0.304030
       2B3u   -0.298676

  @RHF Final Energy:   -29.13369048112233

   => Energetics <=

    Nuclear Repulsion Energy =              1.5679324698962971
    One-Electron Energy =                 -41.3691220151462176
    Two-Electron Energy =                  10.6674990641275844
    DFT Exchange-Correlation Energy =       0.0000000000000000
    Empirical Dispersion Energy =           0.0000000000000000
    PCM Polarization Energy =               0.0000000000000000
    EFP Energy =                            0.0000000000000000
    Total Energy =                        -29.1336904811223363
      * MP2 total energy                      =  -29.180383660093298
      * CCSD total energy                     =  -29.225647757977047
      * CCSD(T) total energy                  =  -29.225661124183091
*** Psi4 exiting successfully. Buy a developer a beer!
