                              Psi4 1.0.0 Driver

  ==> Input File <==

--------------------------------------------------------------------------
memory 24 Gb
molecule be3 {
0 1
Be  -7.2    0.0 0.0
Be   0.0    0.0 0.0
Be   7.2    0.0 0.0
units angstrom
}

set basis 6-31g
set freeze_core true
set PRINT_BASIS True
set PUREAM False
set E_CONVERGENCE 1e-14
energy('ccsd(t)')
--------------------------------------------------------------------------

    Molecular point group: d2h

    Geometry (in Angstrom), charge = 0, multiplicity = 1:

       Center              X                  Y                   Z               Mass
    ------------   -----------------  -----------------  -----------------  -----------------
          BE         -7.200000000000    -0.000000000000     0.000000000000     9.012182201000
          BE          0.000000000000     0.000000000000     0.000000000000     9.012182201000
          BE          7.200000000000     0.000000000000     0.000000000000     9.012182201000

  Charge       = 0
  Multiplicity = 1
  Basis Set: 6-31G

    Orbital Energies (a.u.)
    -----------------------

    Doubly Occupied:

       1Ag    -4.706900     1B3u   -4.706895     2Ag    -4.706895
       3Ag    -0.301508     2B3u   -0.301298     4Ag    -0.301086

  @RHF Final Energy:   -43.70029819601299

   => Energetics <=

    Nuclear Repulsion Energy =              2.9398733810555555
    One-Electron Energy =                 -63.2311797744994948
    Two-Electron Energy =                  16.5910081974309485
    DFT Exchange-Correlation Energy =       0.0000000000000000
    Empirical Dispersion Energy =           0.0000000000000000
    PCM Polarization Energy =               0.0000000000000000
    EFP Energy =                            0.0000000000000000
    Total Energy =                        -43.7002981960129944
      * MP2 total energy                      =  -43.770162289733626
      * CCSD total energy                     =  -43.838250740719218
      * CCSD(T) total energy                  =  -43.838253538415536
*** Psi4 exiting successfully. Buy a developer a beer!
