                              Psi4 1.0.0 Driver

  ==> Input File <==

--------------------------------------------------------------------------
memory 24 Gb
molecule be3 {
0 1
Be  -5.1    0.0 0.0
Be   0.0    0.0 0.0
Be   5.1    0.0 0.0
units angstrom
}

set basis 6-31g
set freeze_core true
set PRINT_BASIS True
set PUREAM False
set E_CONVERGENCE 1e-14
energy('ccsd(t)')
--------------------------------------------------------------------------

    Molecular point group: d2h

    Geometry (in Angstrom), charge = 0, multiplicity = 1:

       Center              X                  Y                   Z               Mass
    ------------   -----------------  -----------------  -----------------  -----------------
          BE         -5.100000000000    -0.000000000000     0.000000000000     9.012182201000
          BE          0.000000000000     0.000000000000     0.000000000000     9.012182201000
          BE          5.100000000000     0.000000000000     0.000000000000     9.012182201000

  Charge       = 0
  Multiplicity = 1
  Basis Set: 6-31G

    Orbital Energies (a.u.)
    -----------------------

    Doubly Occupied:

       1Ag    -4.707724     1B3u   -4.707290     2Ag    -4.707290
       3Ag    -0.307031     2B3u   -0.301507     4Ag    -0.295639

  @RHF Final Energy:   -43.70074184660850

   => Energetics <=

    Nuclear Repulsion Energy =              4.1504094791372541
    One-Electron Energy =                 -65.6493405485232699
    Two-Electron Energy =                  17.7981892227775234
    DFT Exchange-Correlation Energy =       0.0000000000000000
    Empirical Dispersion Energy =           0.0000000000000000
    PCM Polarization Energy =               0.0000000000000000
    EFP Energy =                            0.0000000000000000
    Total Energy =                        -43.7007418466084943
      * MP2 total energy                      =  -43.770991589651480
      * CCSD total energy                     =  -43.838661128203967
      * CCSD(T) total energy                  =  -43.838705965801445
*** Psi4 exiting successfully. Buy a developer a beer!
