                              Psi4 1.0.0 Driver

  ==> Input File <==

--------------------------------------------------------------------------
memory 24 Gb
molecule be3 {
0 1
Be  -8.8    0.0 0.0
Be   0.0    0.0 0.0
Be   8.8    0.0 0.0
units angstrom
}

set basis 6-31g
set freeze_core true
set PRINT_BASIS True
set PUREAM False
set E_CONVERGENCE 1e-14
energy('ccsd(t)')
--------------------------------------------------------------------------

    Molecular point group: d2h

    Geometry (in Angstrom), charge = 0, multiplicity = 1:

       Center              X                  Y                   Z               Mass
    ------------   -----------------  -----------------  -----------------  -----------------
          BE         -8.800000000000    -0.000000000000     0.000000000000     9.012182201000
          BE          0.000000000000     0.000000000000     0.000000000000     9.012182201000
          BE          8.800000000000     0.000000000000     0.000000000000     9.012182201000

  Charge       = 0
  Multiplicity = 1
  Basis Set: 6-31G

    Orbital Energies (a.u.)
    -----------------------

    Doubly Occupied:

       1Ag    -4.706891     1B3u   -4.706891     2Ag    -4.706891
       3Ag    -0.301303     2B3u   -0.301295     4Ag    -0.301288

  @RHF Final Energy:   -43.70029211751714

   => Energetics <=

    Nuclear Repulsion Energy =              2.4053509481363640
    One-Electron Energy =                 -62.1621706536023169
    Two-Electron Energy =                  16.0565275879488105
    DFT Exchange-Correlation Energy =       0.0000000000000000
    Empirical Dispersion Energy =           0.0000000000000000
    PCM Polarization Energy =               0.0000000000000000
    EFP Energy =                            0.0000000000000000
    Total Energy =                        -43.7002921175171366
      * MP2 total energy                      =  -43.770112615039238
      * CCSD total energy                     =  -43.838223966674413
      * CCSD(T) total energy                  =  -43.838224730329031
*** Psi4 exiting successfully. Buy a developer a beer!
