                              Psi4 1.0.0 Driver

  ==> Input File <==

--------------------------------------------------------------------------
memory 24 Gb
molecule be3 {
0 1
Be  -3.8    0.0 0.0
Be   0.0    0.0 0.0
Be   3.8    0.0 0.0
units angstrom
}

set basis 6-31g
set freeze_core true
set PRINT_BASIS True
set PUREAM False
set E_CONVERGENCE 1e-14
energy('ccsd(t)')
--------------------------------------------------------------------------

    Molecular point group: d2h

    Geometry (in Angstrom), charge = 0, multiplicity = 1:

       Center              X                  Y                   Z               Mass
    ------------   -----------------  -----------------  -----------------  -----------------
          BE         -3.800000000000    -0.000000000000     0.000000000000     9.012182201000
          BE          0.000000000000     0.000000000000     0.000000000000     9.012182201000
          BE          3.800000000000     0.000000000000     0.000000000000     9.012182201000

  Charge       = 0
  Multiplicity = 1
  Basis Set: 6-31G

    Orbital Energies (a.u.)
    -----------------------

    Doubly Occupied:

       1Ag    -4.708953     1B3u   -4.707360     2Ag    -4.707359
       3Ag    -0.328502     2B3u   -0.303694     4Ag    -0.273142

  @RHF Final Energy:   -43.69972985831161

   => Energetics <=

    Nuclear Repulsion Energy =              5.5702864062105295
    One-Electron Energy =                 -68.4820129085562428
    Two-Electron Energy =                  19.2119966440340981
    DFT Exchange-Correlation Energy =       0.0000000000000000
    Empirical Dispersion Energy =           0.0000000000000000
    PCM Polarization Energy =               0.0000000000000000
    EFP Energy =                            0.0000000000000000
    Total Energy =                        -43.6997298583116134
      * MP2 total energy                      =  -43.771495664737031
      * CCSD total energy                     =  -43.837229084077052
      * CCSD(T) total energy                  =  -43.837655710567866
*** Psi4 exiting successfully. Buy a developer a beer!
