                              Psi4 1.0.0 Driver

  ==> Input File <==

--------------------------------------------------------------------------
memory 24 Gb
molecule be3 {
0 1
Be  -5.2    0.0 0.0
Be   0.0    0.0 0.0
Be   5.2    0.0 0.0
units angstrom
}

set basis 6-31g
set freeze_core true
set PRINT_BASIS True
set PUREAM False
set E_CONVERGENCE 1e-14
energy('ccsd(t)')
--------------------------------------------------------------------------

    Molecular point group: d2h

    Geometry (in Angstrom), charge = 0, multiplicity = 1:

       Center              X                  Y                   Z               Mass
    ------------   -----------------  -----------------  -----------------  -----------------
          BE         -5.200000000000    -0.000000000000     0.000000000000     9.012182201000
          BE          0.000000000000     0.000000000000     0.000000000000     9.012182201000
          BE          5.200000000000     0.000000000000     0.000000000000     9.012182201000

  Charge       = 0
  Multiplicity = 1
  Basis Set: 6-31G

    Orbital Energies (a.u.)
    -----------------------

    Doubly Occupied:

       1Ag    -4.707635     1B3u   -4.707252     2Ag    -4.707252
       3Ag    -0.306323     2B3u   -0.301476     4Ag    -0.296357

  @RHF Final Energy:   -43.70070092432727

   => Energetics <=

    Nuclear Repulsion Energy =              4.0705939122307706
    One-Electron Energy =                 -65.4900017184821763
    Two-Electron Energy =                  17.7187068819241276
    DFT Exchange-Correlation Energy =       0.0000000000000000
    Empirical Dispersion Energy =           0.0000000000000000
    PCM Polarization Energy =               0.0000000000000000
    EFP Energy =                            0.0000000000000000
    Total Energy =                        -43.7007009243272790
      * MP2 total energy                      =  -43.770903232003931
      * CCSD total energy                     =  -43.838628965247466
      * CCSD(T) total energy                  =  -43.838666810114816
*** Psi4 exiting successfully. Buy a developer a beer!
