                              Psi4 1.0.0 Driver

  ==> Input File <==

--------------------------------------------------------------------------
memory 24 Gb
molecule be3 {
0 1
Be  -4.2    0.0 0.0
Be   0.0    0.0 0.0
Be   4.2    0.0 0.0
units angstrom
}

set basis 6-31g
set freeze_core true
set PRINT_BASIS True
set PUREAM False
set E_CONVERGENCE 1e-14
energy('ccsd(t)')
--------------------------------------------------------------------------

    Molecular point group: d2h

    Geometry (in Angstrom), charge = 0, multiplicity = 1:

       Center              X                  Y                   Z               Mass
    ------------   -----------------  -----------------  -----------------  -----------------
          BE         -4.200000000000    -0.000000000000     0.000000000000     9.012182201000
          BE          0.000000000000     0.000000000000     0.000000000000     9.012182201000
          BE          4.200000000000     0.000000000000     0.000000000000     9.012182201000

  Charge       = 0
  Multiplicity = 1
  Basis Set: 6-31G

    Orbital Energies (a.u.)
    -----------------------

    Doubly Occupied:

       1Ag    -4.708475     1B3u   -4.707458     2Ag    -4.707457
       3Ag    -0.318564     2B3u   -0.302329     4Ag    -0.283582

  @RHF Final Energy:   -43.70062137913959

   => Energetics <=

    Nuclear Repulsion Energy =              5.0397829389523814
    One-Electron Energy =                 -67.4250798730663661
    Two-Electron Energy =                  18.6846755549743939
    DFT Exchange-Correlation Energy =       0.0000000000000000
    Empirical Dispersion Energy =           0.0000000000000000
    PCM Polarization Energy =               0.0000000000000000
    EFP Energy =                            0.0000000000000000
    Total Energy =                        -43.7006213791395908
      * MP2 total energy                      =  -43.771684557091525
      * CCSD total energy                     =  -43.838380775004133
      * CCSD(T) total energy                  =  -43.838595046020053
*** Psi4 exiting successfully. Buy a developer a beer!
