                              Psi4 1.0.0 Driver

  ==> Input File <==

--------------------------------------------------------------------------
memory 24 Gb
molecule be3 {
0 1
Be  -4.8    0.0 0.0
Be   0.0    0.0 0.0
Be   4.8    0.0 0.0
units angstrom
}

set basis 6-31g
set freeze_core true
set PRINT_BASIS True
set PUREAM False
set E_CONVERGENCE 1e-14
energy('ccsd(t)')
--------------------------------------------------------------------------

    Molecular point group: d2h

    Geometry (in Angstrom), charge = 0, multiplicity = 1:

       Center              X                  Y                   Z               Mass
    ------------   -----------------  -----------------  -----------------  -----------------
          BE         -4.800000000000    -0.000000000000     0.000000000000     9.012182201000
          BE          0.000000000000     0.000000000000     0.000000000000     9.012182201000
          BE          4.800000000000     0.000000000000     0.000000000000     9.012182201000

  Charge       = 0
  Multiplicity = 1
  Basis Set: 6-31G

    Orbital Energies (a.u.)
    -----------------------

    Doubly Occupied:

       1Ag    -4.707994     1B3u   -4.707393     2Ag    -4.707393
       3Ag    -0.309706     2B3u   -0.301636     4Ag    -0.292889

  @RHF Final Energy:   -43.70083704135859

   => Energetics <=

    Nuclear Repulsion Energy =              4.4098100715833350
    One-Electron Energy =                 -66.1672741939948708
    Two-Electron Energy =                  18.0566270810529446
    DFT Exchange-Correlation Energy =       0.0000000000000000
    Empirical Dispersion Energy =           0.0000000000000000
    PCM Polarization Energy =               0.0000000000000000
    EFP Energy =                            0.0000000000000000
    Total Energy =                        -43.7008370413585894
      * MP2 total energy                      =  -43.771270829954524
      * CCSD total energy                     =  -43.838725263137150
      * CCSD(T) total energy                  =  -43.838800504084475
*** Psi4 exiting successfully. Buy a developer a beer!
