                              Psi4 1.0.0 Driver

  ==> Input File <==

--------------------------------------------------------------------------
memory 24 Gb
molecule be3 {
0 1
Be  -7.5    0.0 0.0
Be   0.0    0.0 0.0
Be   7.5    0.0 0.0
units angstrom
}

set basis 6-31g
set freeze_core true
set PRINT_BASIS True
set PUREAM False
set E_CONVERGENCE 1e-14
energy('ccsd(t)')
--------------------------------------------------------------------------

    Molecular point group: d2h

    Geometry (in Angstrom), charge = 0, multiplicity = 1:

       Center              X                  Y                   Z               Mass
    ------------   -----------------  -----------------  -----------------  -----------------
          BE         -7.500000000000    -0.000000000000     0.000000000000     9.012182201000
          BE          0.000000000000     0.000000000000     0.000000000000     9.012182201000
          BE          7.500000000000     0.000000000000     0.000000000000     9.012182201000

  Charge       = 0
  Multiplicity = 1
  Basis Set: 6-31G

    Orbital Energies (a.u.)
    -----------------------

    Doubly Occupied:

       1Ag    -4.706894     1B3u   -4.706892     2Ag    -4.706892
       3Ag    -0.301416     2B3u   -0.301296     4Ag    -0.301176

  @RHF Final Energy:   -43.70029446136366

   => Energetics <=

    Nuclear Repulsion Energy =              2.8222784458133332
    One-Electron Energy =                 -62.9960121915248834
    Two-Electron Energy =                  16.4734392843478901
    DFT Exchange-Correlation Energy =       0.0000000000000000
    Empirical Dispersion Energy =           0.0000000000000000
    PCM Polarization Energy =               0.0000000000000000
    EFP Energy =                            0.0000000000000000
    Total Energy =                        -43.7002944613636615
      * MP2 total energy                      =  -43.770145198663649
      * CCSD total energy                     =  -43.838241246094661
      * CCSD(T) total energy                  =  -43.838243377800637
*** Psi4 exiting successfully. Buy a developer a beer!
