                              Psi4 1.0.0 Driver

  ==> Input File <==

--------------------------------------------------------------------------
memory 24 Gb
molecule be3 {
0 1
Be  -6.0    0.0 0.0
Be   0.0    0.0 0.0
Be   6.0    0.0 0.0
units angstrom
}

set basis 6-31g
set freeze_core true
set PRINT_BASIS True
set PUREAM False
set E_CONVERGENCE 1e-14
energy('ccsd(t)')
--------------------------------------------------------------------------

    Molecular point group: d2h

    Geometry (in Angstrom), charge = 0, multiplicity = 1:

       Center              X                  Y                   Z               Mass
    ------------   -----------------  -----------------  -----------------  -----------------
          BE         -6.000000000000    -0.000000000000     0.000000000000     9.012182201000
          BE          0.000000000000     0.000000000000     0.000000000000     9.012182201000
          BE          6.000000000000     0.000000000000     0.000000000000     9.012182201000

  Charge       = 0
  Multiplicity = 1
  Basis Set: 6-31G

    Orbital Energies (a.u.)
    -----------------------

    Doubly Occupied:

       1Ag    -4.707096     1B3u   -4.706996     2Ag    -4.706996
       3Ag    -0.302903     2B3u   -0.301341     4Ag    -0.299738

  @RHF Final Energy:   -43.70041507181615

   => Energetics <=

    Nuclear Repulsion Energy =              3.5278480572666684
    One-Electron Energy =                 -64.4063874738814945
    Two-Electron Energy =                  17.1781243447986824
    DFT Exchange-Correlation Energy =       0.0000000000000000
    Empirical Dispersion Energy =           0.0000000000000000
    PCM Polarization Energy =               0.0000000000000000
    EFP Energy =                            0.0000000000000000
    Total Energy =                        -43.7004150718161455
      * MP2 total energy                      =  -43.770393565950378
      * CCSD total energy                     =  -43.838382858696590
      * CCSD(T) total energy                  =  -43.838393780006633
*** Psi4 exiting successfully. Buy a developer a beer!
