                              Psi4 1.0.0 Driver

  ==> Input File <==

--------------------------------------------------------------------------
memory 24 Gb
molecule be3 {
0 1
Be  -7.0    0.0 0.0
Be   0.0    0.0 0.0
Be   7.0    0.0 0.0
units angstrom
}

set basis 6-31g
set freeze_core true
set PRINT_BASIS True
set PUREAM False
set E_CONVERGENCE 1e-14
energy('ccsd(t)')
--------------------------------------------------------------------------

    Molecular point group: d2h

    Geometry (in Angstrom), charge = 0, multiplicity = 1:

       Center              X                  Y                   Z               Mass
    ------------   -----------------  -----------------  -----------------  -----------------
          BE         -7.000000000000    -0.000000000000     0.000000000000     9.012182201000
          BE          0.000000000000     0.000000000000     0.000000000000     9.012182201000
          BE          7.000000000000     0.000000000000     0.000000000000     9.012182201000

  Charge       = 0
  Multiplicity = 1
  Basis Set: 6-31G

    Orbital Energies (a.u.)
    -----------------------

    Doubly Occupied:

       1Ag    -4.706907     1B3u   -4.706899     2Ag    -4.706899
       3Ag    -0.301602     2B3u   -0.301299     4Ag    -0.300994

  @RHF Final Energy:   -43.70030310081366

   => Energetics <=

    Nuclear Repulsion Energy =              3.0238697633714278
    One-Electron Energy =                 -63.3991427030091899
    Two-Electron Energy =                  16.6749698388241043
    DFT Exchange-Correlation Energy =       0.0000000000000000
    Empirical Dispersion Energy =           0.0000000000000000
    PCM Polarization Energy =               0.0000000000000000
    EFP Energy =                            0.0000000000000000
    Total Energy =                        -43.7003031008136560
      * MP2 total energy                      =  -43.770178353024718
      * CCSD total energy                     =  -43.838259849845620
      * CCSD(T) total energy                  =  -43.838263241283173
*** Psi4 exiting successfully. Buy a developer a beer!
