                              Psi4 1.0.0 Driver

  ==> Input File <==

--------------------------------------------------------------------------
memory 24 Gb
molecule be3 {
0 1
Be  -4.6    0.0 0.0
Be   0.0    0.0 0.0
Be   4.6    0.0 0.0
units angstrom
}

set basis 6-31g
set freeze_core true
set PRINT_BASIS True
set PUREAM False
set E_CONVERGENCE 1e-14
energy('ccsd(t)')
--------------------------------------------------------------------------

    Molecular point group: d2h

    Geometry (in Angstrom), charge = 0, multiplicity = 1:

       Center              X                  Y                   Z               Mass
    ------------   -----------------  -----------------  -----------------  -----------------
          BE         -4.600000000000    -0.000000000000     0.000000000000     9.012182201000
          BE          0.000000000000     0.000000000000     0.000000000000     9.012182201000
          BE          4.600000000000     0.000000000000     0.000000000000     9.012182201000

  Charge       = 0
  Multiplicity = 1
  Basis Set: 6-31G

    Orbital Energies (a.u.)
    -----------------------

    Doubly Occupied:

       1Ag    -4.708162     1B3u   -4.707441     2Ag    -4.707440
       3Ag    -0.312050     2B3u   -0.301775     4Ag    -0.290443

  @RHF Final Energy:   -43.70085091321216

   => Energetics <=

    Nuclear Repulsion Energy =              4.6015409442608703
    One-Electron Energy =                 -66.5501611431905076
    Two-Electron Energy =                  18.2477692857174851
    DFT Exchange-Correlation Energy =       0.0000000000000000
    Empirical Dispersion Energy =           0.0000000000000000
    PCM Polarization Energy =               0.0000000000000000
    EFP Energy =                            0.0000000000000000
    Total Energy =                        -43.7008509132121503
      * MP2 total energy                      =  -43.771450137842777
      * CCSD total energy                     =  -43.838711778203049
      * CCSD(T) total energy                  =  -43.838818439455380
*** Psi4 exiting successfully. Buy a developer a beer!
