                              Psi4 1.0.0 Driver

  ==> Input File <==

--------------------------------------------------------------------------
memory 24 Gb
molecule be3 {
0 1
Be  -6.7    0.0 0.0
Be   0.0    0.0 0.0
Be   6.7    0.0 0.0
units angstrom
}

set basis 6-31g
set freeze_core true
set PRINT_BASIS True
set PUREAM False
set E_CONVERGENCE 1e-14
energy('ccsd(t)')
--------------------------------------------------------------------------

    Molecular point group: d2h

    Geometry (in Angstrom), charge = 0, multiplicity = 1:

       Center              X                  Y                   Z               Mass
    ------------   -----------------  -----------------  -----------------  -----------------
          BE         -6.700000000000    -0.000000000000     0.000000000000     9.012182201000
          BE          0.000000000000     0.000000000000     0.000000000000     9.012182201000
          BE          6.700000000000     0.000000000000     0.000000000000     9.012182201000

  Charge       = 0
  Multiplicity = 1
  Basis Set: 6-31G

    Orbital Energies (a.u.)
    -----------------------

    Doubly Occupied:

       1Ag    -4.706930     1B3u   -4.706911     2Ag    -4.706911
       3Ag    -0.301813     2B3u   -0.301304     4Ag    -0.300789

  @RHF Final Energy:   -43.70031709046894

   => Energetics <=

    Nuclear Repulsion Energy =              3.1592669169552234
    One-Electron Energy =                 -63.6698502849863672
    Two-Electron Energy =                  16.8102662775622100
    DFT Exchange-Correlation Energy =       0.0000000000000000
    Empirical Dispersion Energy =           0.0000000000000000
    PCM Polarization Energy =               0.0000000000000000
    EFP Energy =                            0.0000000000000000
    Total Energy =                        -43.7003170904689284
      * MP2 total energy                      =  -43.770213489949967
      * CCSD total energy                     =  -43.838280082221992
      * CCSD(T) total energy                  =  -43.838284706612690
*** Psi4 exiting successfully. Buy a developer a beer!
