                              Psi4 1.0.0 Driver

  ==> Input File <==

--------------------------------------------------------------------------
memory 24 Gb
molecule be3 {
0 1
Be  -6.8    0.0 0.0
Be   0.0    0.0 0.0
Be   6.8    0.0 0.0
units angstrom
}

set basis 6-31g
set freeze_core true
set PRINT_BASIS True
set PUREAM False
set E_CONVERGENCE 1e-14
energy('ccsd(t)')
--------------------------------------------------------------------------

    Molecular point group: d2h

    Geometry (in Angstrom), charge = 0, multiplicity = 1:

       Center              X                  Y                   Z               Mass
    ------------   -----------------  -----------------  -----------------  -----------------
          BE         -6.800000000000    -0.000000000000     0.000000000000     9.012182201000
          BE          0.000000000000     0.000000000000     0.000000000000     9.012182201000
          BE          6.800000000000     0.000000000000     0.000000000000     9.012182201000

  Charge       = 0
  Multiplicity = 1
  Basis Set: 6-31G

    Orbital Energies (a.u.)
    -----------------------

    Doubly Occupied:

       1Ag    -4.706920     1B3u   -4.706906     2Ag    -4.706906
       3Ag    -0.301731     2B3u   -0.301302     4Ag    -0.300869

  @RHF Final Energy:   -43.70031127869544

   => Energetics <=

    Nuclear Repulsion Energy =              3.1128071093529397
    One-Electron Energy =                 -63.5769669027028783
    Two-Electron Energy =                  16.7638485146544980
    DFT Exchange-Correlation Energy =       0.0000000000000000
    Empirical Dispersion Energy =           0.0000000000000000
    PCM Polarization Energy =               0.0000000000000000
    EFP Energy =                            0.0000000000000000
    Total Energy =                        -43.7003112786954375
      * MP2 total energy                      =  -43.770199957280120
      * CCSD total energy                     =  -43.838272260636963
      * CCSD(T) total energy                  =  -43.838276417577198
*** Psi4 exiting successfully. Buy a developer a beer!
