                              Psi4 1.0.0 Driver

  ==> Input File <==

--------------------------------------------------------------------------
memory 24 Gb
molecule be3 {
0 1
Be  -4.0    0.0 0.0
Be   0.0    0.0 0.0
Be   4.0    0.0 0.0
units angstrom
}

set basis 6-31g
set freeze_core true
set PRINT_BASIS True
set PUREAM False
set E_CONVERGENCE 1e-14
energy('ccsd(t)')
--------------------------------------------------------------------------

    Molecular point group: d2h

    Geometry (in Angstrom), charge = 0, multiplicity = 1:

       Center              X                  Y                   Z               Mass
    ------------   -----------------  -----------------  -----------------  -----------------
          BE         -4.000000000000    -0.000000000000     0.000000000000     9.012182201000
          BE          0.000000000000     0.000000000000     0.000000000000     9.012182201000
          BE          4.000000000000     0.000000000000     0.000000000000     9.012182201000

  Charge       = 0
  Multiplicity = 1
  Basis Set: 6-31G

    Orbital Energies (a.u.)
    -----------------------

    Doubly Occupied:

       1Ag    -4.708668     1B3u   -4.707422     2Ag    -4.707421
       3Ag    -0.323016     2B3u   -0.302863     4Ag    -0.278892

  @RHF Final Energy:   -43.70028904478082

   => Energetics <=

    Nuclear Repulsion Energy =              5.2917720858999999
    One-Electron Energy =                 -67.9275592194833280
    Two-Electron Energy =                  18.9354980888025111
    DFT Exchange-Correlation Energy =       0.0000000000000000
    Empirical Dispersion Energy =           0.0000000000000000
    PCM Polarization Energy =               0.0000000000000000
    EFP Energy =                            0.0000000000000000
    Total Energy =                        -43.7002890447808170
      * MP2 total energy                      =  -43.771667096849932
      * CCSD total energy                     =  -43.837947149515969
      * CCSD(T) total energy                  =  -43.838249944564488
*** Psi4 exiting successfully. Buy a developer a beer!
