                              Psi4 1.0.0 Driver

  ==> Input File <==

--------------------------------------------------------------------------
memory 24 Gb
molecule be3 {
0 1
Be  -4.3    0.0 0.0
Be   0.0    0.0 0.0
Be   4.3    0.0 0.0
units angstrom
}

set basis 6-31g
set freeze_core true
set PRINT_BASIS True
set PUREAM False
set E_CONVERGENCE 1e-14
energy('ccsd(t)')
--------------------------------------------------------------------------

    Molecular point group: d2h

    Geometry (in Angstrom), charge = 0, multiplicity = 1:

       Center              X                  Y                   Z               Mass
    ------------   -----------------  -----------------  -----------------  -----------------
          BE         -4.300000000000    -0.000000000000     0.000000000000     9.012182201000
          BE          0.000000000000     0.000000000000     0.000000000000     9.012182201000
          BE          4.300000000000     0.000000000000     0.000000000000     9.012182201000

  Charge       = 0
  Multiplicity = 1
  Basis Set: 6-31G

    Orbital Energies (a.u.)
    -----------------------

    Doubly Occupied:

       1Ag    -4.708395     1B3u   -4.707464     2Ag    -4.707464
       3Ag    -0.316667     2B3u   -0.302140     4Ag    -0.285584

  @RHF Final Energy:   -43.70072340228726

   => Energetics <=

    Nuclear Repulsion Energy =              4.9225786845581405
    One-Electron Energy =                 -67.1911772167664765
    Two-Electron Energy =                  18.5678751299210703
    DFT Exchange-Correlation Energy =       0.0000000000000000
    Empirical Dispersion Energy =           0.0000000000000000
    PCM Polarization Energy =               0.0000000000000000
    EFP Energy =                            0.0000000000000000
    Total Energy =                        -43.7007234022872666
      * MP2 total energy                      =  -43.771651650878432
      * CCSD total energy                     =  -43.838517679774583
      * CCSD(T) total energy                  =  -43.838697756145777
*** Psi4 exiting successfully. Buy a developer a beer!
