                              Psi4 1.0.0 Driver

  ==> Input File <==

--------------------------------------------------------------------------
memory 24 Gb
molecule be3 {
0 1
Be  -5.8    0.0 0.0
Be   0.0    0.0 0.0
Be   5.8    0.0 0.0
units angstrom
}

set basis 6-31g
set freeze_core true
set PRINT_BASIS True
set PUREAM False
set E_CONVERGENCE 1e-14
energy('ccsd(t)')
--------------------------------------------------------------------------

    Molecular point group: d2h

    Geometry (in Angstrom), charge = 0, multiplicity = 1:

       Center              X                  Y                   Z               Mass
    ------------   -----------------  -----------------  -----------------  -----------------
          BE         -5.800000000000    -0.000000000000     0.000000000000     9.012182201000
          BE          0.000000000000     0.000000000000     0.000000000000     9.012182201000
          BE          5.800000000000     0.000000000000     0.000000000000     9.012182201000

  Charge       = 0
  Multiplicity = 1
  Basis Set: 6-31G

    Orbital Energies (a.u.)
    -----------------------

    Doubly Occupied:

       1Ag    -4.707192     1B3u   -4.707044     2Ag    -4.707044
       3Ag    -0.303465     2B3u   -0.301362     4Ag    -0.299192

  @RHF Final Energy:   -43.70046957615847

   => Energetics <=

    Nuclear Repulsion Energy =              3.6494979902758637
    One-Electron Energy =                 -64.6493357994382052
    Two-Electron Energy =                  17.2993682330038716
    DFT Exchange-Correlation Energy =       0.0000000000000000
    Empirical Dispersion Energy =           0.0000000000000000
    PCM Polarization Energy =               0.0000000000000000
    EFP Energy =                            0.0000000000000000
    Total Energy =                        -43.7004695761584685
      * MP2 total energy                      =  -43.770485396680421
      * CCSD total energy                     =  -43.838432914606486
      * CCSD(T) total energy                  =  -43.838447460924371
*** Psi4 exiting successfully. Buy a developer a beer!
