                              Psi4 1.0.0 Driver

  ==> Input File <==

--------------------------------------------------------------------------
memory 24 Gb
molecule be3 {
0 1
Be  -4.1    0.0 0.0
Be   0.0    0.0 0.0
Be   4.1    0.0 0.0
units angstrom
}

set basis 6-31g
set freeze_core true
set PRINT_BASIS True
set PUREAM False
set E_CONVERGENCE 1e-14
energy('ccsd(t)')
--------------------------------------------------------------------------

    Molecular point group: d2h

    Geometry (in Angstrom), charge = 0, multiplicity = 1:

       Center              X                  Y                   Z               Mass
    ------------   -----------------  -----------------  -----------------  -----------------
          BE         -4.100000000000    -0.000000000000     0.000000000000     9.012182201000
          BE          0.000000000000     0.000000000000     0.000000000000     9.012182201000
          BE          4.100000000000     0.000000000000     0.000000000000     9.012182201000

  Charge       = 0
  Multiplicity = 1
  Basis Set: 6-31G

    Orbital Energies (a.u.)
    -----------------------

    Doubly Occupied:

       1Ag    -4.708564     1B3u   -4.707443     2Ag    -4.707443
       3Ag    -0.320673     2B3u   -0.302566     4Ag    -0.281358

  @RHF Final Energy:   -43.70047912959518

   => Energetics <=

    Nuclear Repulsion Energy =              5.1627044740487804
    One-Electron Energy =                 -67.6702732746478688
    Two-Electron Energy =                  18.8070896710039008
    DFT Exchange-Correlation Energy =       0.0000000000000000
    Empirical Dispersion Energy =           0.0000000000000000
    PCM Polarization Energy =               0.0000000000000000
    EFP Energy =                            0.0000000000000000
    Total Energy =                        -43.7004791295951875
      * MP2 total energy                      =  -43.771691736527153
      * CCSD total energy                     =  -43.838193922415059
      * CCSD(T) total energy                  =  -43.838448727848821
*** Psi4 exiting successfully. Buy a developer a beer!
