                              Psi4 1.0.0 Driver

  ==> Input File <==

--------------------------------------------------------------------------
memory 24 Gb
molecule be3 {
0 1
Be  -5.5    0.0 0.0
Be   0.0    0.0 0.0
Be   5.5    0.0 0.0
units angstrom
}

set basis 6-31g
set freeze_core true
set PRINT_BASIS True
set PUREAM False
set E_CONVERGENCE 1e-14
energy('ccsd(t)')
--------------------------------------------------------------------------

    Molecular point group: d2h

    Geometry (in Angstrom), charge = 0, multiplicity = 1:

       Center              X                  Y                   Z               Mass
    ------------   -----------------  -----------------  -----------------  -----------------
          BE         -5.500000000000    -0.000000000000     0.000000000000     9.012182201000
          BE          0.000000000000     0.000000000000     0.000000000000     9.012182201000
          BE          5.500000000000     0.000000000000     0.000000000000     9.012182201000

  Charge       = 0
  Multiplicity = 1
  Basis Set: 6-31G

    Orbital Energies (a.u.)
    -----------------------

    Doubly Occupied:

       1Ag    -4.707387     1B3u   -4.707139     2Ag    -4.707139
       3Ag    -0.304635     2B3u   -0.301408     4Ag    -0.298044

  @RHF Final Energy:   -43.70057603426402

   => Energetics <=

    Nuclear Repulsion Energy =              3.8485615170181813
    One-Electron Energy =                 -65.0467719734380267
    Two-Electron Energy =                  17.4976344221558193
    DFT Exchange-Correlation Energy =       0.0000000000000000
    Empirical Dispersion Energy =           0.0000000000000000
    PCM Polarization Energy =               0.0000000000000000
    EFP Energy =                            0.0000000000000000
    Total Energy =                        -43.7005760342640244
      * MP2 total energy                      =  -43.770667649138531
      * CCSD total energy                     =  -43.838525742883640
      * CCSD(T) total energy                  =  -43.838548842105880
*** Psi4 exiting successfully. Buy a developer a beer!
