                              Psi4 1.0.0 Driver

  ==> Input File <==

--------------------------------------------------------------------------
memory 24 Gb
molecule be3 {
0 1
Be  -9.4    0.0 0.0
Be   0.0    0.0 0.0
Be   9.4    0.0 0.0
units angstrom
}

set basis 6-31g
set freeze_core true
set PRINT_BASIS True
set PUREAM False
set E_CONVERGENCE 1e-14
energy('ccsd(t)')
--------------------------------------------------------------------------

    Molecular point group: d2h

    Geometry (in Angstrom), charge = 0, multiplicity = 1:

       Center              X                  Y                   Z               Mass
    ------------   -----------------  -----------------  -----------------  -----------------
          BE         -9.400000000000    -0.000000000000     0.000000000000     9.012182201000
          BE          0.000000000000     0.000000000000     0.000000000000     9.012182201000
          BE          9.400000000000     0.000000000000     0.000000000000     9.012182201000

  Charge       = 0
  Multiplicity = 1
  Basis Set: 6-31G

    Orbital Energies (a.u.)
    -----------------------

    Doubly Occupied:

       1Ag    -4.706891     1B3u   -4.706891     2Ag    -4.706891
       3Ag    -0.301297     2B3u   -0.301295     4Ag    -0.301294

  @RHF Final Energy:   -43.70029210166651

   => Energetics <=

    Nuclear Repulsion Energy =              2.2518179088936163
    One-Electron Energy =                 -61.8551046575944383
    Two-Electron Energy =                  15.9029946470343226
    DFT Exchange-Correlation Energy =       0.0000000000000000
    Empirical Dispersion Energy =           0.0000000000000000
    PCM Polarization Energy =               0.0000000000000000
    EFP Energy =                            0.0000000000000000
    Total Energy =                        -43.7002921016665056
      * MP2 total energy                      =  -43.770106415723518
      * CCSD total energy                     =  -43.838220768276173
      * CCSD(T) total energy                  =  -43.838221271872548
*** Psi4 exiting successfully. Buy a developer a beer!
