                              Psi4 1.0.0 Driver

  ==> Input File <==

--------------------------------------------------------------------------
memory 24 Gb
molecule be3 {
0 1
Be  -4.7    0.0 0.0
Be   0.0    0.0 0.0
Be   4.7    0.0 0.0
units angstrom
}

set basis 6-31g
set freeze_core true
set PRINT_BASIS True
set PUREAM False
set E_CONVERGENCE 1e-14
energy('ccsd(t)')
--------------------------------------------------------------------------

    Molecular point group: d2h

    Geometry (in Angstrom), charge = 0, multiplicity = 1:

       Center              X                  Y                   Z               Mass
    ------------   -----------------  -----------------  -----------------  -----------------
          BE         -4.700000000000    -0.000000000000     0.000000000000     9.012182201000
          BE          0.000000000000     0.000000000000     0.000000000000     9.012182201000
          BE          4.700000000000     0.000000000000     0.000000000000     9.012182201000

  Charge       = 0
  Multiplicity = 1
  Basis Set: 6-31G

    Orbital Energies (a.u.)
    -----------------------

    Doubly Occupied:

       1Ag    -4.708079     1B3u   -4.707420     2Ag    -4.707419
       3Ag    -0.310814     2B3u   -0.301698     4Ag    -0.291736

  @RHF Final Energy:   -43.70085106260082

   => Energetics <=

    Nuclear Repulsion Energy =              4.5036358177872327
    One-Electron Energy =                 -66.3546410415826244
    Two-Electron Energy =                  18.1501541611945854
    DFT Exchange-Correlation Energy =       0.0000000000000000
    Empirical Dispersion Energy =           0.0000000000000000
    PCM Polarization Energy =               0.0000000000000000
    EFP Energy =                            0.0000000000000000
    Total Energy =                        -43.7008510626008047
      * MP2 total energy                      =  -43.771362749233681
      * CCSD total energy                     =  -43.838726606480684
      * CCSD(T) total energy                  =  -43.838816174652841
*** Psi4 exiting successfully. Buy a developer a beer!
