                              Psi4 1.0.0 Driver

  ==> Input File <==

--------------------------------------------------------------------------
memory 24 Gb
molecule be3 {
0 1
Be  -7.1    0.0 0.0
Be   0.0    0.0 0.0
Be   7.1    0.0 0.0
units angstrom
}

set basis 6-31g
set freeze_core true
set PRINT_BASIS True
set PUREAM False
set E_CONVERGENCE 1e-14
energy('ccsd(t)')
--------------------------------------------------------------------------

    Molecular point group: d2h

    Geometry (in Angstrom), charge = 0, multiplicity = 1:

       Center              X                  Y                   Z               Mass
    ------------   -----------------  -----------------  -----------------  -----------------
          BE         -7.100000000000    -0.000000000000     0.000000000000     9.012182201000
          BE          0.000000000000     0.000000000000     0.000000000000     9.012182201000
          BE          7.100000000000     0.000000000000     0.000000000000     9.012182201000

  Charge       = 0
  Multiplicity = 1
  Basis Set: 6-31G

    Orbital Energies (a.u.)
    -----------------------

    Doubly Occupied:

       1Ag    -4.706903     1B3u   -4.706897     2Ag    -4.706897
       3Ag    -0.301551     2B3u   -0.301298     4Ag    -0.301044

  @RHF Final Energy:   -43.70030032403861

   => Energetics <=

    Nuclear Repulsion Energy =              2.9812800483943667
    One-Electron Energy =                 -63.3139802200217474
    Two-Electron Energy =                  16.6323998475887755
    DFT Exchange-Correlation Energy =       0.0000000000000000
    Empirical Dispersion Energy =           0.0000000000000000
    PCM Polarization Energy =               0.0000000000000000
    EFP Energy =                            0.0000000000000000
    Total Energy =                        -43.7003003240386079
      * MP2 total energy                      =  -43.770169741239712
      * CCSD total energy                     =  -43.838254949015230
      * CCSD(T) total energy                  =  -43.838258025428416
*** Psi4 exiting successfully. Buy a developer a beer!
