                              Psi4 1.0.0 Driver

  ==> Input File <==

--------------------------------------------------------------------------
memory 24 Gb
molecule be3 {
0 1
Be  -7.8    0.0 0.0
Be   0.0    0.0 0.0
Be   7.8    0.0 0.0
units angstrom
}

set basis 6-31g
set freeze_core true
set PRINT_BASIS True
set PUREAM False
set E_CONVERGENCE 1e-14
energy('ccsd(t)')
--------------------------------------------------------------------------

    Molecular point group: d2h

    Geometry (in Angstrom), charge = 0, multiplicity = 1:

       Center              X                  Y                   Z               Mass
    ------------   -----------------  -----------------  -----------------  -----------------
          BE         -7.800000000000    -0.000000000000     0.000000000000     9.012182201000
          BE          0.000000000000     0.000000000000     0.000000000000     9.012182201000
          BE          7.800000000000     0.000000000000     0.000000000000     9.012182201000

  Charge       = 0
  Multiplicity = 1
  Basis Set: 6-31G

    Orbital Energies (a.u.)
    -----------------------

    Doubly Occupied:

       1Ag    -4.706892     1B3u   -4.706891     2Ag    -4.706891
       3Ag    -0.301362     2B3u   -0.301296     4Ag    -0.301229

  @RHF Final Energy:   -43.70029295014758

   => Energetics <=

    Nuclear Repulsion Energy =              2.7137292748205120
    One-Electron Energy =                 -62.7789226420734252
    Two-Electron Energy =                  16.3649004171053321
    DFT Exchange-Correlation Energy =       0.0000000000000000
    Empirical Dispersion Energy =           0.0000000000000000
    PCM Polarization Energy =               0.0000000000000000
    EFP Energy =                            0.0000000000000000
    Total Energy =                        -43.7002929501475847
      * MP2 total energy                      =  -43.770133473082431
      * CCSD total energy                     =  -43.838234900120860
      * CCSD(T) total energy                  =  -43.838236550636431
*** Psi4 exiting successfully. Buy a developer a beer!
