                              Psi4 1.0.0 Driver

  ==> Input File <==

--------------------------------------------------------------------------
memory 24 Gb
molecule be3 {
0 1
Be  -7.6    0.0 0.0
Be   0.0    0.0 0.0
Be   7.6    0.0 0.0
units angstrom
}

set basis 6-31g
set freeze_core true
set PRINT_BASIS True
set PUREAM False
set E_CONVERGENCE 1e-14
energy('ccsd(t)')
--------------------------------------------------------------------------

    Molecular point group: d2h

    Geometry (in Angstrom), charge = 0, multiplicity = 1:

       Center              X                  Y                   Z               Mass
    ------------   -----------------  -----------------  -----------------  -----------------
          BE         -7.600000000000    -0.000000000000     0.000000000000     9.012182201000
          BE          0.000000000000     0.000000000000     0.000000000000     9.012182201000
          BE          7.600000000000     0.000000000000     0.000000000000     9.012182201000

  Charge       = 0
  Multiplicity = 1
  Basis Set: 6-31G

    Orbital Energies (a.u.)
    -----------------------

    Doubly Occupied:

       1Ag    -4.706893     1B3u   -4.706892     2Ag    -4.706892
       3Ag    -0.301395     2B3u   -0.301296     4Ag    -0.301197

  @RHF Final Energy:   -43.70029379336763

   => Energetics <=

    Nuclear Repulsion Energy =              2.7851432031052648
    One-Electron Energy =                 -62.9217456202226231
    Two-Electron Energy =                  16.4363086237497242
    DFT Exchange-Correlation Energy =       0.0000000000000000
    Empirical Dispersion Energy =           0.0000000000000000
    PCM Polarization Energy =               0.0000000000000000
    EFP Energy =                            0.0000000000000000
    Total Energy =                        -43.7002937933676350
      * MP2 total energy                      =  -43.770140820246233
      * CCSD total energy                     =  -43.838238858495657
      * CCSD(T) total energy                  =  -43.838240812831970
*** Psi4 exiting successfully. Buy a developer a beer!
