                              Psi4 1.0.0 Driver

  ==> Input File <==

--------------------------------------------------------------------------
memory 24 Gb
molecule be3 {
0 1
Be  -6.6    0.0 0.0
Be   0.0    0.0 0.0
Be   6.6    0.0 0.0
units angstrom
}

set basis 6-31g
set freeze_core true
set PRINT_BASIS True
set PUREAM False
set E_CONVERGENCE 1e-14
energy('ccsd(t)')
--------------------------------------------------------------------------

    Molecular point group: d2h

    Geometry (in Angstrom), charge = 0, multiplicity = 1:

       Center              X                  Y                   Z               Mass
    ------------   -----------------  -----------------  -----------------  -----------------
          BE         -6.600000000000    -0.000000000000     0.000000000000     9.012182201000
          BE          0.000000000000     0.000000000000     0.000000000000     9.012182201000
          BE          6.600000000000     0.000000000000     0.000000000000     9.012182201000

  Charge       = 0
  Multiplicity = 1
  Basis Set: 6-31G

    Orbital Energies (a.u.)
    -----------------------

    Doubly Occupied:

       1Ag    -4.706942     1B3u   -4.706917     2Ag    -4.706917
       3Ag    -0.301909     2B3u   -0.301307     4Ag    -0.300696

  @RHF Final Energy:   -43.70032437238734

   => Energetics <=

    Nuclear Repulsion Energy =              3.2071345975151537
    One-Electron Energy =                 -63.7655399668597269
    Two-Electron Energy =                  16.8580809969572307
    DFT Exchange-Correlation Energy =       0.0000000000000000
    Empirical Dispersion Energy =           0.0000000000000000
    PCM Polarization Energy =               0.0000000000000000
    EFP Energy =                            0.0000000000000000
    Total Energy =                        -43.7003243723873425
      * MP2 total energy                      =  -43.770229266584487
      * CCSD total energy                     =  -43.838289218359755
      * CCSD(T) total energy                  =  -43.838294381156622
*** Psi4 exiting successfully. Buy a developer a beer!
