                              Psi4 1.0.0 Driver

  ==> Input File <==

--------------------------------------------------------------------------
memory 24 Gb
molecule be3 {
0 1
Be  -6.5    0.0 0.0
Be   0.0    0.0 0.0
Be   6.5    0.0 0.0
units angstrom
}

set basis 6-31g
set freeze_core true
set PRINT_BASIS True
set PUREAM False
set E_CONVERGENCE 1e-14
energy('ccsd(t)')
--------------------------------------------------------------------------

    Molecular point group: d2h

    Geometry (in Angstrom), charge = 0, multiplicity = 1:

       Center              X                  Y                   Z               Mass
    ------------   -----------------  -----------------  -----------------  -----------------
          BE         -6.500000000000    -0.000000000000     0.000000000000     9.012182201000
          BE          0.000000000000     0.000000000000     0.000000000000     9.012182201000
          BE          6.500000000000     0.000000000000     0.000000000000     9.012182201000

  Charge       = 0
  Multiplicity = 1
  Basis Set: 6-31G

    Orbital Energies (a.u.)
    -----------------------

    Doubly Occupied:

       1Ag    -4.706957     1B3u   -4.706925     2Ag    -4.706925
       3Ag    -0.302021     2B3u   -0.301310     4Ag    -0.300589

  @RHF Final Energy:   -43.70033339826655

   => Energetics <=

    Nuclear Repulsion Energy =              3.2564751297846142
    One-Electron Energy =                 -63.8641640966584063
    Two-Electron Energy =                  16.9073555686072368
    DFT Exchange-Correlation Energy =       0.0000000000000000
    Empirical Dispersion Energy =           0.0000000000000000
    PCM Polarization Energy =               0.0000000000000000
    EFP Energy =                            0.0000000000000000
    Total Energy =                        -43.7003333982665580
      * MP2 total energy                      =  -43.770247652397735
      * CCSD total energy                     =  -43.838299865447276
      * CCSD(T) total energy                  =  -43.838305651518461
*** Psi4 exiting successfully. Buy a developer a beer!
