                              Psi4 1.0.0 Driver

  ==> Input File <==

--------------------------------------------------------------------------
memory 24 Gb
molecule be3 {
0 1
Be  -5.7    0.0 0.0
Be   0.0    0.0 0.0
Be   5.7    0.0 0.0
units angstrom
}

set basis 6-31g
set freeze_core true
set PRINT_BASIS True
set PUREAM False
set E_CONVERGENCE 1e-14
energy('ccsd(t)')
--------------------------------------------------------------------------

    Molecular point group: d2h

    Geometry (in Angstrom), charge = 0, multiplicity = 1:

       Center              X                  Y                   Z               Mass
    ------------   -----------------  -----------------  -----------------  -----------------
          BE         -5.700000000000    -0.000000000000     0.000000000000     9.012182201000
          BE          0.000000000000     0.000000000000     0.000000000000     9.012182201000
          BE          5.700000000000     0.000000000000     0.000000000000     9.012182201000

  Charge       = 0
  Multiplicity = 1
  Basis Set: 6-31G

    Orbital Energies (a.u.)
    -----------------------

    Doubly Occupied:

       1Ag    -4.707250     1B3u   -4.707073     2Ag    -4.707073
       3Ag    -0.303807     2B3u   -0.301375     4Ag    -0.298859

  @RHF Final Energy:   -43.70050196986018

   => Energetics <=

    Nuclear Repulsion Energy =              3.7135242708070169
    One-Electron Energy =                 -64.7771788486305979
    Two-Electron Energy =                  17.3631526079633964
    DFT Exchange-Correlation Energy =       0.0000000000000000
    Empirical Dispersion Energy =           0.0000000000000000
    PCM Polarization Energy =               0.0000000000000000
    EFP Energy =                            0.0000000000000000
    Total Energy =                        -43.7005019698601842
      * MP2 total energy                      =  -43.770540023925818
      * CCSD total energy                     =  -43.838461713857903
      * CCSD(T) total energy                  =  -43.838478615388560
*** Psi4 exiting successfully. Buy a developer a beer!
