                              Psi4 1.0.0 Driver

  ==> Input File <==

--------------------------------------------------------------------------
memory 24 Gb
molecule be3 {
0 1
Be  -8.2    0.0 0.0
Be   0.0    0.0 0.0
Be   8.2    0.0 0.0
units angstrom
}

set basis 6-31g
set freeze_core true
set PRINT_BASIS True
set PUREAM False
set E_CONVERGENCE 1e-14
energy('ccsd(t)')
--------------------------------------------------------------------------

    Molecular point group: d2h

    Geometry (in Angstrom), charge = 0, multiplicity = 1:

       Center              X                  Y                   Z               Mass
    ------------   -----------------  -----------------  -----------------  -----------------
          BE         -8.200000000000    -0.000000000000     0.000000000000     9.012182201000
          BE          0.000000000000     0.000000000000     0.000000000000     9.012182201000
          BE          8.200000000000     0.000000000000     0.000000000000     9.012182201000

  Charge       = 0
  Multiplicity = 1
  Basis Set: 6-31G

    Orbital Energies (a.u.)
    -----------------------

    Doubly Occupied:

       1Ag    -4.706891     1B3u   -4.706891     2Ag    -4.706891
       3Ag    -0.301324     2B3u   -0.301295     4Ag    -0.301267

  @RHF Final Energy:   -43.70029229522780

   => Energetics <=

    Nuclear Repulsion Energy =              2.5813522370243902
    One-Electron Energy =                 -62.5141722664903199
    Two-Electron Energy =                  16.2325277342381362
    DFT Exchange-Correlation Energy =       0.0000000000000000
    Empirical Dispersion Energy =           0.0000000000000000
    PCM Polarization Energy =               0.0000000000000000
    EFP Energy =                            0.0000000000000000
    Total Energy =                        -43.7002922952277970
      * MP2 total energy                      =  -43.770122761498705
      * CCSD total energy                     =  -43.838229237496989
      * CCSD(T) total energy                  =  -43.838230434122721
*** Psi4 exiting successfully. Buy a developer a beer!
