                              Psi4 1.0.0 Driver

  ==> Input File <==

--------------------------------------------------------------------------
memory 24 Gb
molecule be3 {
0 1
Be  -5.4    0.0 0.0
Be   0.0    0.0 0.0
Be   5.4    0.0 0.0
units angstrom
}

set basis 6-31g
set freeze_core true
set PRINT_BASIS True
set PUREAM False
set E_CONVERGENCE 1e-14
energy('ccsd(t)')
--------------------------------------------------------------------------

    Molecular point group: d2h

    Geometry (in Angstrom), charge = 0, multiplicity = 1:

       Center              X                  Y                   Z               Mass
    ------------   -----------------  -----------------  -----------------  -----------------
          BE         -5.400000000000    -0.000000000000     0.000000000000     9.012182201000
          BE          0.000000000000     0.000000000000     0.000000000000     9.012182201000
          BE          5.400000000000     0.000000000000     0.000000000000     9.012182201000

  Charge       = 0
  Multiplicity = 1
  Basis Set: 6-31G

    Orbital Energies (a.u.)
    -----------------------

    Doubly Occupied:

       1Ag    -4.707465     1B3u   -4.707175     2Ag    -4.707175
       3Ag    -0.305132     2B3u   -0.301427     4Ag    -0.297551

  @RHF Final Energy:   -43.70061670319151

   => Energetics <=

    Nuclear Repulsion Energy =              3.9198311747407431
    One-Electron Energy =                 -65.1890443132897133
    Two-Electron Energy =                  17.5685964353574491
    DFT Exchange-Correlation Energy =       0.0000000000000000
    Empirical Dispersion Energy =           0.0000000000000000
    PCM Polarization Energy =               0.0000000000000000
    EFP Energy =                            0.0000000000000000
    Total Energy =                        -43.7006167031915211
      * MP2 total energy                      =  -43.770740600754820
      * CCSD total energy                     =  -43.838560015957711
      * CCSD(T) total energy                  =  -43.838587167399105
*** Psi4 exiting successfully. Buy a developer a beer!
