                              Psi4 1.0.0 Driver

  ==> Input File <==

--------------------------------------------------------------------------
memory 24 Gb
molecule be3 {
0 1
Be  -3.9    0.0 0.0
Be   0.0    0.0 0.0
Be   3.9    0.0 0.0
units angstrom
}

set basis 6-31g
set freeze_core true
set PRINT_BASIS True
set PUREAM False
set E_CONVERGENCE 1e-14
energy('ccsd(t)')
--------------------------------------------------------------------------

    Molecular point group: d2h

    Geometry (in Angstrom), charge = 0, multiplicity = 1:

       Center              X                  Y                   Z               Mass
    ------------   -----------------  -----------------  -----------------  -----------------
          BE         -3.900000000000    -0.000000000000     0.000000000000     9.012182201000
          BE          0.000000000000     0.000000000000     0.000000000000     9.012182201000
          BE          3.900000000000     0.000000000000     0.000000000000     9.012182201000

  Charge       = 0
  Multiplicity = 1
  Basis Set: 6-31G

    Orbital Energies (a.u.)
    -----------------------

    Doubly Occupied:

       1Ag    -4.708794     1B3u   -4.707394     2Ag    -4.707393
       3Ag    -0.325617     2B3u   -0.303233     4Ag    -0.276161

  @RHF Final Energy:   -43.70004251077165

   => Energetics <=

    Nuclear Repulsion Energy =              5.4274585496410239
    One-Electron Energy =                 -68.1978165595136261
    Two-Electron Energy =                  19.0703154991009569
    DFT Exchange-Correlation Energy =       0.0000000000000000
    Empirical Dispersion Energy =           0.0000000000000000
    PCM Polarization Energy =               0.0000000000000000
    EFP Energy =                            0.0000000000000000
    Total Energy =                        -43.7000425107716453
      * MP2 total energy                      =  -43.771604036519143
      * CCSD total energy                     =  -43.837629466217464
      * CCSD(T) total energy                  =  -43.837989016717970
*** Psi4 exiting successfully. Buy a developer a beer!
