                              Psi4 1.0.0 Driver

  ==> Input File <==

--------------------------------------------------------------------------
memory 24 Gb
molecule be3 {
0 1
Be  -4.4    0.0 0.0
Be   0.0    0.0 0.0
Be   4.4    0.0 0.0
units angstrom
}

set basis 6-31g
set freeze_core true
set PRINT_BASIS True
set PUREAM False
set E_CONVERGENCE 1e-14
energy('ccsd(t)')
--------------------------------------------------------------------------

    Molecular point group: d2h

    Geometry (in Angstrom), charge = 0, multiplicity = 1:

       Center              X                  Y                   Z               Mass
    ------------   -----------------  -----------------  -----------------  -----------------
          BE         -4.400000000000    -0.000000000000     0.000000000000     9.012182201000
          BE          0.000000000000     0.000000000000     0.000000000000     9.012182201000
          BE          4.400000000000     0.000000000000     0.000000000000     9.012182201000

  Charge       = 0
  Multiplicity = 1
  Basis Set: 6-31G

    Orbital Energies (a.u.)
    -----------------------

    Doubly Occupied:

       1Ag    -4.708318     1B3u   -4.707464     2Ag    -4.707463
       3Ag    -0.314960     2B3u   -0.301990     4Ag    -0.287383

  @RHF Final Energy:   -43.70079188399334

   => Energetics <=

    Nuclear Repulsion Energy =              4.8107018962727279
    One-Electron Energy =                 -66.9678309645466356
    Two-Electron Energy =                  18.4563371842805743
    DFT Exchange-Correlation Energy =       0.0000000000000000
    Empirical Dispersion Energy =           0.0000000000000000
    PCM Polarization Energy =               0.0000000000000000
    EFP Energy =                            0.0000000000000000
    Total Energy =                        -43.7007918839933325
      * MP2 total energy                      =  -43.771598495635885
      * CCSD total energy                     =  -43.838613497818606
      * CCSD(T) total energy                  =  -43.838764765637201
*** Psi4 exiting successfully. Buy a developer a beer!
