                              Psi4 1.0.0 Driver

  ==> Input File <==

--------------------------------------------------------------------------
memory 24 Gb
molecule be3 {
0 1
Be  -8.1    0.0 0.0
Be   0.0    0.0 0.0
Be   8.1    0.0 0.0
units angstrom
}

set basis 6-31g
set freeze_core true
set PRINT_BASIS True
set PUREAM False
set E_CONVERGENCE 1e-14
energy('ccsd(t)')
--------------------------------------------------------------------------

    Molecular point group: d2h

    Geometry (in Angstrom), charge = 0, multiplicity = 1:

       Center              X                  Y                   Z               Mass
    ------------   -----------------  -----------------  -----------------  -----------------
          BE         -8.100000000000    -0.000000000000     0.000000000000     9.012182201000
          BE          0.000000000000     0.000000000000     0.000000000000     9.012182201000
          BE          8.100000000000     0.000000000000     0.000000000000     9.012182201000

  Charge       = 0
  Multiplicity = 1
  Basis Set: 6-31G

    Orbital Energies (a.u.)
    -----------------------

    Doubly Occupied:

       1Ag    -4.706891     1B3u   -4.706891     2Ag    -4.706891
       3Ag    -0.301331     2B3u   -0.301295     4Ag    -0.301260

  @RHF Final Energy:   -43.70029238523028

   => Energetics <=

    Nuclear Repulsion Energy =              2.6132207831604948
    One-Electron Energy =                 -62.5779088591851718
    Two-Electron Energy =                  16.2643956907943910
    DFT Exchange-Correlation Energy =       0.0000000000000000
    Empirical Dispersion Energy =           0.0000000000000000
    PCM Polarization Energy =               0.0000000000000000
    EFP Energy =                            0.0000000000000000
    Total Energy =                        -43.7002923852302843
      * MP2 total energy                      =  -43.770125051945747
      * CCSD total energy                     =  -43.838230438261242
      * CCSD(T) total energy                  =  -43.838231732673002
*** Psi4 exiting successfully. Buy a developer a beer!
