                              Psi4 1.0.0 Driver

  ==> Input File <==

--------------------------------------------------------------------------

memory 10 Gb
molecule be2 {
0 1
Be  0.0  0.0  0.0
Be  0.0  0.0  6.700
Be  0.0  0.0  13.400
units angstrom
}

set basis 6-31g
set freeze_core true
set PRINT_BASIS True
set PUREAM False
set E_CONVERGENCE 1e-14
energy('fci')
--------------------------------------------------------------------------

    Molecular point group: d2h

    Geometry (in Angstrom), charge = 0, multiplicity = 1:

       Center              X                  Y                   Z               Mass
    ------------   -----------------  -----------------  -----------------  -----------------
          BE          0.000000000000     0.000000000000    -6.700000000000     9.012182201000
          BE          0.000000000000     0.000000000000     0.000000000000     9.012182201000
          BE          0.000000000000     0.000000000000     6.700000000000     9.012182201000

  Charge       = 0
  Multiplicity = 1
  Basis Set: 6-31G

    Orbital Energies (a.u.)
    -----------------------

    Doubly Occupied:

       1Ag    -4.706930     1B1u   -4.706911     2Ag    -4.706911
       3Ag    -0.301813     2B1u   -0.301304     4Ag    -0.300789

  @RHF Final Energy:   -43.70031709046894

   => Energetics <=

    Nuclear Repulsion Energy =              3.1592669169552234
    One-Electron Energy =                 -63.6698502877868719
    Two-Electron Energy =                  16.8102662803627112
    DFT Exchange-Correlation Energy =       0.0000000000000000
    Empirical Dispersion Energy =           0.0000000000000000
    PCM Polarization Energy =               0.0000000000000000
    EFP Energy =                            0.0000000000000000
    Total Energy =                        -43.7003170904689355
*** Psi4 exiting successfully. Buy a developer a beer!
