                              Psi4 1.0.0 Driver

  ==> Input File <==

--------------------------------------------------------------------------

memory 10 Gb
molecule be2 {
0 1
Be  0.0  0.0  0.0
Be  0.0  0.0  5.000
Be  0.0  0.0  10.000
units angstrom
}

set basis 6-31g
set freeze_core true
set PRINT_BASIS True
set PUREAM False
set E_CONVERGENCE 1e-14
energy('fci')
--------------------------------------------------------------------------

    Molecular point group: d2h

    Geometry (in Angstrom), charge = 0, multiplicity = 1:

       Center              X                  Y                   Z               Mass
    ------------   -----------------  -----------------  -----------------  -----------------
          BE          0.000000000000     0.000000000000    -5.000000000000     9.012182201000
          BE          0.000000000000     0.000000000000     0.000000000000     9.012182201000
          BE          0.000000000000     0.000000000000     5.000000000000     9.012182201000

  Charge       = 0
  Multiplicity = 1
  Basis Set: 6-31G

    Orbital Energies (a.u.)
    -----------------------

    Doubly Occupied:

       1Ag    -4.707815     1B1u   -4.707327     2Ag    -4.707327
       3Ag    -0.307825     2B1u   -0.301542     4Ag    -0.294829

  @RHF Final Energy:   -43.70077968011563

   => Energetics <=

    Nuclear Repulsion Energy =              4.2334176687200022
    One-Electron Energy =                 -65.8150646437724731
    Two-Electron Energy =                  17.8808672949368486
    DFT Exchange-Correlation Energy =       0.0000000000000000
    Empirical Dispersion Energy =           0.0000000000000000
    PCM Polarization Energy =               0.0000000000000000
    EFP Energy =                            0.0000000000000000
    Total Energy =                        -43.7007796801156232
*** Psi4 exiting successfully. Buy a developer a beer!
