                              Psi4 1.0.0 Driver

  ==> Input File <==

--------------------------------------------------------------------------

memory 10 Gb
molecule be2 {
0 1
Be  0.0  0.0  0.0
Be  0.0  0.0  7.100
Be  0.0  0.0  14.200
units angstrom
}

set basis 6-31g
set freeze_core true
set PRINT_BASIS True
set PUREAM False
set E_CONVERGENCE 1e-14
energy('fci')
--------------------------------------------------------------------------

    Molecular point group: d2h

    Geometry (in Angstrom), charge = 0, multiplicity = 1:

       Center              X                  Y                   Z               Mass
    ------------   -----------------  -----------------  -----------------  -----------------
          BE          0.000000000000     0.000000000000    -7.100000000000     9.012182201000
          BE          0.000000000000     0.000000000000     0.000000000000     9.012182201000
          BE          0.000000000000     0.000000000000     7.100000000000     9.012182201000

  Charge       = 0
  Multiplicity = 1
  Basis Set: 6-31G

    Orbital Energies (a.u.)
    -----------------------

    Doubly Occupied:

       1Ag    -4.706903     1B1u   -4.706897     2Ag    -4.706897
       3Ag    -0.301551     2B1u   -0.301298     4Ag    -0.301044

  @RHF Final Energy:   -43.70030032403859

   => Energetics <=

    Nuclear Repulsion Energy =              2.9812800483943667
    One-Electron Energy =                 -63.3139802200217190
    Two-Electron Energy =                  16.6323998475887613
    DFT Exchange-Correlation Energy =       0.0000000000000000
    Empirical Dispersion Energy =           0.0000000000000000
    PCM Polarization Energy =               0.0000000000000000
    EFP Energy =                            0.0000000000000000
    Total Energy =                        -43.7003003240385937
*** Psi4 exiting successfully. Buy a developer a beer!
